VARIABLES="w (rad/s)"
"abs(F   1   1)" "angle(F   1   1)"
"abs(F   1   2)" "angle(F   1   2)"
"abs(F   1   3)" "angle(F   1   3)"
"abs(F   1   4)" "angle(F   1   4)"
"abs(F   1   5)" "angle(F   1   5)"
"abs(F   1   6)" "angle(F   1   6)"
Zone t="Diffraction force - beta =   0.000 deg",I=    75,F=POINT
  0.3000000E+00  0.2945535E+00 -0.3141592E+01  0.1517793E-06 -0.1624338E+01  0.3581289E+01  0.1576019E+01  0.3407258E-06  0.1571229E+01  0.4613784E-01 -0.3141592E+01  0.1249483E-14 -0.1543026E+01
  0.1994595E+01  0.1199353E+02 -0.3140416E+01  0.3870119E-05 -0.1481798E+01  0.1664941E+03  0.1748759E+01  0.3909308E-05  0.1637510E+01  0.1766961E+01 -0.3140099E+01  0.1955632E-13 -0.1788234E+01
  0.3689189E+01  0.3073011E+02 -0.3107005E+01  0.4318000E-04 -0.3018107E+01  0.5070037E+03  0.1982038E+01  0.1008022E-05 -0.2888043E+01  0.3681041E+01 -0.3089123E+01  0.1626919E-12  0.1160887E+01
  0.5383784E+01  0.1836601E+02 -0.2989512E+01  0.7315927E-04 -0.1071480E+01  0.8324740E+03  0.2138166E+01  0.2644775E-04  0.2357598E+01  0.1818129E+01 -0.2700082E+00  0.5273866E-12 -0.2310907E+00
  0.7078378E+01  0.8447858E+02  0.5156280E+00  0.2726295E-04 -0.2600198E+01  0.9872863E+03  0.2202754E+01  0.6506754E-05 -0.5770409E+00  0.2312097E+02  0.3049946E+00  0.6103699E-12 -0.1038113E+01
  0.8772973E+01  0.2451673E+03  0.7048183E+00  0.8943593E-04 -0.2010375E+01  0.8850986E+03  0.2181620E+01  0.1943405E-04  0.5245908E+00  0.5207143E+02  0.5067846E+00  0.7213606E-12 -0.2687857E+01
  0.1046757E+02  0.3375165E+03  0.8084899E+00  0.3371394E-04  0.3623668E+00  0.5390383E+03  0.2014563E+01  0.1756259E-04 -0.1853049E+01  0.6752204E+02  0.5829428E+00  0.8477410E-12  0.3143618E-01
  0.1216216E+02  0.2481291E+03  0.8272822E+00  0.4779528E-05  0.5704038E+00  0.1691228E+03  0.1021325E+01  0.7397147E-06 -0.2990804E+01  0.5341044E+02  0.5236694E+00  0.5326938E-12  0.3470616E+00
  0.1385676E+02  0.2244899E+02  0.3792512E+00  0.1014479E-04 -0.2304165E+00  0.2265989E+03 -0.4584824E+00  0.1625302E-05  0.1497744E+01  0.2012401E+02  0.8199286E-01  0.8968232E-12  0.1898497E+01
  0.1555135E+02  0.1643747E+03 -0.2225056E+01  0.1289956E-04 -0.2554591E+01  0.1816084E+03 -0.9547276E+00  0.3869850E-05 -0.1046464E+01  0.1970893E+02 -0.1982741E+01  0.1824008E-11  0.1936292E+01
  0.1724594E+02  0.7956126E+02 -0.2463253E+01  0.4488347E-05  0.2498797E+01  0.1125356E+03  0.3013188E+01  0.4281706E-05 -0.2081265E+01  0.1354236E+02 -0.2580827E+01  0.1597146E-11 -0.8145009E+00
  0.1894054E+02  0.9917410E+02  0.1024467E+01  0.7620787E-05 -0.3231853E+00  0.9316187E+02  0.2147682E+01  0.1738367E-05  0.2144836E+01  0.1201103E+02  0.1270079E+01  0.1170714E-11  0.8969440E+00
  0.2063513E+02  0.4347496E+02  0.3883265E+00  0.4589577E-05  0.2979125E+01  0.8309518E+02 -0.2755463E+00  0.3973673E-06 -0.3040696E+01  0.6151649E+01  0.3740641E+00  0.2881478E-11 -0.2884951E+01
  0.2232973E+02  0.7848071E+02 -0.2204899E+01  0.3019522E-05 -0.2272416E+01  0.4065553E+02 -0.1701578E+01  0.1881034E-05 -0.1821209E+01  0.9772681E+01 -0.2098878E+01  0.1890565E-11 -0.3195152E-01
  0.2402432E+02  0.3136688E+02  0.1612430E+01  0.8549545E-06  0.8270047E+00  0.6386600E+02  0.2382323E+01  0.1195794E-05 -0.3702732E-01  0.4243180E+01  0.1709464E+01  0.2673155E-12 -0.1052887E+01
  0.2571892E+02  0.3211280E+02  0.4713474E+00  0.6370984E-06 -0.9237686E+00  0.4544699E+02 -0.1755399E+00  0.6007262E-06  0.7015740E+00  0.4073697E+01  0.5003604E+00  0.1032933E-11 -0.2638712E+01
  0.2741351E+02  0.4662775E+02 -0.2301630E+01  0.7011394E-06  0.1608330E+01  0.2383469E+02 -0.2390383E+01  0.4515478E-06 -0.1477785E+01  0.5967873E+01 -0.2259301E+01  0.4638941E-12  0.1940548E+01
  0.2910810E+02  0.3630536E+02  0.1138898E+01  0.1472655E-05 -0.1924370E+01  0.2408571E+02  0.1830188E+01  0.4718617E-06  0.1798648E+01  0.4760275E+01  0.1173071E+01  0.7376846E-12 -0.2285152E+01
  0.3080270E+02  0.2343634E+02 -0.1711299E+01  0.2089252E-05  0.3061408E+01  0.2692280E+02 -0.8583436E+00  0.3638054E-06  0.1439335E+00  0.3109704E+01 -0.1689402E+01  0.1678085E-11 -0.8083235E+00
  0.3249730E+02  0.1410262E+02  0.1805336E+01  0.1166595E-05 -0.2122631E+01  0.2475769E+02  0.2374381E+01  0.3936939E-06  0.1481698E+00  0.1876475E+01  0.1812466E+01  0.1151650E-11  0.1621140E+01
  0.3419189E+02  0.1003448E+02 -0.1012807E+01  0.8449369E-06  0.2026395E+01  0.2210459E+02 -0.5224955E+00  0.3099732E-06 -0.2371299E+01  0.1333614E+01 -0.1019461E+01  0.1089413E-11 -0.2517007E+01
  0.3588649E+02  0.8198109E+01  0.2199661E+01  0.2096969E-05 -0.3377533E+00  0.1731638E+02  0.2645177E+01  0.2099412E-06 -0.1133286E+00  0.1088191E+01  0.2191687E+01  0.3096421E-11  0.2438145E-02
  0.3758108E+02  0.7455725E+01 -0.1202300E+01  0.8684585E-06  0.2819382E+01  0.4115251E+01 -0.6252010E+00  0.6522342E-07 -0.3054806E+01  0.9885584E+00 -0.1208558E+01  0.1003284E-12  0.7447471E+00
  0.3927567E+02  0.8034721E+01  0.1540481E+01  0.2869466E-06 -0.1570949E+00  0.1595883E+02  0.2133164E+01  0.1632198E-06  0.2415994E+01  0.1068773E+01  0.1537496E+01  0.1250590E-11 -0.1820124E+01
  0.4097027E+02  0.8584919E+01 -0.1923266E+01  0.2910659E-06 -0.3660470E-01  0.8929344E+01 -0.1150466E+01  0.6819470E-07  0.7417588E+00  0.1142762E+01 -0.1917685E+01  0.2207194E-11  0.1542184E+01
  0.4266486E+02  0.4227257E+01  0.7754490E+00  0.1165933E-06  0.3037064E+01  0.3991239E+01  0.1249164E+01  0.4221913E-07  0.1592491E+01  0.5528879E+00  0.7805837E+00  0.1871349E-11 -0.6697896E+00
  0.4435946E+02  0.1181735E+02 -0.2691856E+01  0.3520630E-06  0.6545704E+00  0.2979100E+01  0.2647559E+01  0.2033583E-07  0.1701764E+01  0.1590653E+01 -0.2688967E+01  0.1206282E-11 -0.2364183E+01
  0.4605405E+02  0.1409943E+01 -0.6115584E+00  0.7153001E-07 -0.1016979E+01  0.6694749E+01 -0.2656779E+01  0.6732770E-07 -0.3092388E+01  0.1799913E+00 -0.6406797E+00  0.1806716E-11 -0.2919709E+01
  0.4774865E+02  0.3692612E+01  0.9505728E-01  0.1266279E-06  0.2290764E+01  0.6367042E+01  0.1863350E+01  0.1914392E-06  0.1626602E+01  0.5021453E+00  0.6725223E-01  0.2443676E-12 -0.5652090E+00
  0.4944324E+02  0.1206865E+02 -0.2919296E+01  0.1355055E-06 -0.1639795E+01  0.3524551E+01  0.1502935E+01  0.2659556E-07 -0.3129513E+01  0.1632246E+01 -0.2919050E+01  0.5149318E-12 -0.1390436E+01
  0.5113783E+02  0.2558201E+01 -0.3011511E+01  0.2243695E-06  0.1069303E+01  0.1884941E+02 -0.1816969E+01  0.1698812E-06  0.1153211E+01  0.3492760E+00 -0.3020523E+01  0.2932856E-12 -0.8973855E+00
  0.5283243E+02  0.1411041E+02 -0.3436490E+00  0.9455282E-07  0.2721251E+01  0.2461446E+01 -0.1627830E+01  0.2159130E-07 -0.1596579E+01  0.1911740E+01 -0.3432444E+00  0.1098751E-12 -0.2385493E+01
  0.5452702E+02  0.2751935E+01 -0.1966548E-01  0.2771074E-06 -0.9368842E+00  0.1541899E+02  0.1344971E+01  0.1039029E-06  0.1931370E+01  0.3734022E+00 -0.2199577E-01  0.1404601E-11 -0.3002026E+01
  0.5622162E+02  0.9984595E+01  0.3141125E+01  0.1234492E-06 -0.1261282E+01  0.4460211E+01  0.1420110E+01  0.9007261E-08 -0.2756961E+01  0.1350379E+01  0.3141138E+01  0.4006304E-12 -0.4120693E+00
  0.5791621E+02  0.6118365E+01  0.2940105E+01  0.2290724E-06  0.1502119E+01  0.5346745E+01 -0.1475631E+01  0.2804993E-07 -0.2195192E+01  0.8269303E+00  0.2938912E+01  0.5855444E-12  0.2342251E+01
  0.5961081E+02  0.6468173E+00 -0.3140973E+01  0.3002032E-05 -0.1590509E+01  0.1826339E+01 -0.1884768E+01  0.2352838E-07  0.2289917E+01  0.8678825E-01  0.3141170E+01  0.2781551E-12  0.3237385E+00
  0.6130540E+02  0.3755333E+01 -0.6866548E+00  0.7610805E-06 -0.2294305E+01  0.9855423E+01  0.9831964E+00  0.5946066E-06 -0.1595832E+01  0.5073484E+00 -0.6903275E+00  0.2183990E-12  0.4538718E+00
  0.6300000E+02  0.1928410E+02 -0.3974016E+00  0.7997800E-06  0.2110560E+01  0.7944528E+01  0.1732902E+01  0.1224310E-06 -0.2115844E+01  0.2607907E+01 -0.3982598E+00  0.4151411E-12  0.2812421E+01
  0.6469460E+02  0.1729093E+01  0.2829921E+01  0.1000802E-05 -0.2835459E+01  0.1518286E+02 -0.1563763E+01  0.5905928E-06  0.1494407E+01  0.2340959E+00  0.2829405E+01  0.5835546E-12 -0.1247572E+01
  0.6638919E+02  0.8637118E+01 -0.9002457E-01  0.1066862E-04 -0.1450468E+01  0.4615749E+02  0.1433317E+01  0.4484677E-06  0.1633966E+01  0.1167935E+01 -0.9046258E-01  0.8442259E-14 -0.1338576E+01
  0.6808379E+02  0.1109203E+02  0.3092263E+01  0.3456377E-06 -0.2304885E+01  0.2477465E+01  0.1511153E+01  0.2265151E-06  0.2033747E+01  0.1498528E+01  0.3091970E+01  0.2029001E-12 -0.2837914E+01
  0.6977838E+02  0.6109313E+01 -0.7966663E-01  0.1257016E-05 -0.2715295E+01  0.1097525E+01  0.1381310E+01  0.2011867E-06 -0.1390059E+01  0.8252010E+00 -0.7998093E-01  0.1651132E-11 -0.3094373E+01
  0.7147298E+02  0.2850524E+01  0.3109023E+01  0.1331059E-05 -0.2218934E+01  0.2290958E+02  0.1274749E+01  0.9262961E-06 -0.1425081E+01  0.3851581E+00  0.3108872E+01  0.3795455E-13  0.3152610E+00
  0.7316756E+02  0.9781395E+01  0.3131194E+01  0.1290553E-05 -0.3137150E+01  0.4449010E+01  0.1566444E+01  0.1344285E-07  0.3496959E+00  0.1321853E+01  0.3131079E+01  0.1027339E-12  0.7219307E+00
  0.7486216E+02  0.8655081E+00 -0.3119245E+01  0.9108813E-06  0.1425035E+01  0.5706483E+01 -0.1661349E+01  0.5481970E-07  0.2311316E+01  0.1170120E+00 -0.3119287E+01  0.3132942E-13 -0.6814168E+00
  0.7655676E+02  0.6836157E+01  0.1777577E-02  0.8732997E-06  0.1400836E+01  0.4030727E+00 -0.1589835E+01  0.8451375E-07 -0.1477531E+01  0.9242956E+00  0.1756903E-02  0.3418480E-13 -0.2235126E+00
  0.7825135E+02  0.8584306E+01 -0.3563704E-01  0.3385569E-06  0.2317943E+01  0.4934834E+01  0.1625240E+01  0.8793376E-07  0.1605494E+01  0.1160827E+01 -0.3568496E-01  0.1592223E-12  0.2353532E-01
  0.7994595E+02  0.6826020E+01 -0.4186497E-01  0.5711451E-06  0.1453928E+01  0.5512633E+01  0.1571484E+01  0.2816856E-07  0.1318480E+01  0.9231921E+00 -0.4193666E-01  0.4596570E-12  0.2800173E+01
  0.8164054E+02  0.3434219E+01 -0.2540612E-02  0.2008150E-06 -0.1438654E+01  0.3431167E+01  0.1546345E+01  0.2804985E-06 -0.1598088E+01  0.4645143E+00 -0.2566117E-02  0.6697473E-13  0.7352193E-01
  0.8333514E+02  0.1341181E+00  0.2471516E-02  0.2738634E-06 -0.1438707E+01  0.3139638E+01  0.1567363E+01  0.1492960E-06 -0.1577731E+01  0.1813093E-01  0.2462161E-02  0.8279119E-13 -0.2587698E+01
  0.8502972E+02  0.1301538E+01 -0.3111445E+01  0.4850925E-06 -0.1682445E+01  0.7513649E+01  0.1613486E+01  0.1150599E-06  0.1496425E+01  0.1760344E+00 -0.3111377E+01  0.3349242E-13 -0.1300598E+00
  0.8672433E+02  0.1883898E+01  0.5001380E-01  0.9752573E-06  0.1683431E+01  0.9097624E+01  0.1623436E+01  0.1124277E-06  0.1376100E+01  0.2548107E+00  0.5009880E-01  0.1296231E-12  0.2942427E+01
  0.8841892E+02  0.4009133E+01  0.1622435E-01  0.4344809E-06  0.1681055E+01  0.1805960E+01 -0.1540737E+01  0.9811185E-07  0.1763675E+01  0.5423578E+00  0.1626991E-01  0.1181736E-12 -0.7711415E-01
  0.9011351E+02  0.2480585E+01  0.1800746E-01  0.2905016E-06 -0.2019728E+01  0.4757979E+00  0.1581282E+01  0.1189616E-06  0.1501528E+01  0.3356201E+00  0.1803956E-01  0.3373124E-13 -0.1826602E+01
  0.9180811E+02  0.1466926E+01  0.3138968E+01  0.1158941E-05  0.1545337E+01  0.4753089E+01 -0.1574639E+01  0.1153218E-07  0.2086773E+01  0.1985121E+00  0.3138964E+01  0.4066192E-14  0.0000000E+00
  0.9350270E+02  0.3101630E+00  0.3139944E+01  0.1044315E-06 -0.1429172E+01  0.9068214E+00 -0.1569481E+01  0.1048195E-06 -0.1597656E+01  0.4197677E-01  0.3139941E+01  0.1979602E-12  0.3129534E+01
  0.9519730E+02  0.5927097E-01  0.4609678E-02  0.2883523E-06  0.1650438E+01  0.2168100E+01  0.1573083E+01  0.1151463E-06 -0.1564272E+01  0.8022126E-02  0.4629100E-02  0.2050704E-13 -0.2796862E+01
  0.9689189E+02  0.2418232E+00 -0.3137062E+01  0.4309705E-06 -0.1588106E+01  0.2101239E+01  0.1576664E+01  0.6589799E-07 -0.1569037E+01  0.3273289E-01 -0.3137055E+01  0.2057852E-13  0.2520119E+00
  0.9858649E+02  0.2508695E+00  0.7977703E-02  0.1462012E-07  0.1558385E+01  0.1631013E+00  0.1578025E+01  0.8246761E-08 -0.1689188E+01  0.3396030E-01  0.7988174E-02  0.4706366E-13  0.7504179E-01
  0.1002811E+03  0.1257954E+01 -0.3132047E+01  0.1492471E-07 -0.1365860E+01  0.7348524E+00 -0.1560037E+01  0.4269275E-08  0.1759544E+01  0.1703046E+00 -0.3132033E+01  0.1953700E-13 -0.1183464E+01
  0.1019757E+03  0.6863554E+00 -0.3134600E+01  0.1380748E-06 -0.1400355E+01  0.1310061E+01  0.1577471E+01  0.1321248E-07  0.1599006E+01  0.9292885E-01 -0.3134592E+01  0.2681284E-14  0.1437775E+01
  0.1036703E+03  0.2256414E+00  0.1296745E-01  0.1815008E-07  0.1848346E+01  0.3135979E-01  0.1583530E+01  0.2217622E-09 -0.9529306E+00  0.3055379E-01  0.1298688E-01  0.2230188E-13 -0.3105960E+01
  0.1053649E+03  0.8480449E+00 -0.3133985E+01  0.2531380E-07 -0.9196243E+00  0.1437313E+01  0.1578598E+01  0.2456492E-07  0.1609200E+01  0.1148431E+00 -0.3133975E+01  0.3789714E-13 -0.4440143E-02
  0.1070595E+03  0.8163634E+00 -0.3904647E-03  0.6011881E-08  0.2733383E+01  0.6738846E-01  0.1570563E+01  0.5414573E-08 -0.1897132E+01  0.1105632E+00 -0.3906642E-03  0.1976059E-13 -0.2981755E+01
  0.1087541E+03  0.1516554E+00 -0.3141303E+01  0.2528608E-07 -0.1525299E+01  0.1477358E+00  0.1571275E+01  0.4963602E-08 -0.1554488E+01  0.2054055E-01 -0.3141302E+01  0.4327183E-14  0.2856836E+01
  0.1104486E+03  0.1477388E+00  0.7094548E-03  0.7972100E-07 -0.1549542E+01  0.3817100E+00 -0.1570062E+01  0.2800642E-08  0.1616926E+01  0.2001129E-01  0.7106593E-03  0.2404983E-14  0.3053480E+01
  0.1121432E+03  0.2700081E+00 -0.3140870E+01  0.2976654E-07 -0.1621221E+01  0.2466653E+00 -0.1570058E+01  0.1177276E-07 -0.1561970E+01  0.3657496E-01 -0.3140869E+01  0.1913742E-13 -0.1403491E+00
  0.1138378E+03  0.2916954E+00  0.6174510E-03  0.7394602E-07 -0.1549531E+01  0.2649714E+00  0.1571461E+01  0.3322311E-08 -0.1390374E+01  0.3951518E-01  0.6181145E-03  0.2674623E-14 -0.7333214E+00
  0.1155324E+03  0.4278372E-01  0.2117822E-03  0.1859604E-08 -0.6127222E+00  0.6971710E-01 -0.1570554E+01  0.6224409E-09  0.1934834E+01  0.5796206E-02  0.2117996E-03  0.5477105E-14 -0.2737514E+01
  0.1172270E+03  0.1360752E-01 -0.1375075E-03  0.1786176E-07  0.1606824E+01  0.1653720E+00  0.1570788E+01  0.1855661E-08  0.1504534E+01  0.1843481E-02 -0.1379417E-03  0.1548333E-14 -0.4374647E+00
  0.1189216E+03  0.7158523E-01  0.1034575E-04  0.2744792E-07  0.1507927E+01  0.8799650E-01  0.1570798E+01  0.4687378E-08 -0.1574159E+01  0.9698557E-02  0.1063076E-04  0.8078617E-14 -0.3132477E+01
  0.1206162E+03  0.1386027E-01 -0.2765624E-04  0.8299716E-08 -0.1522728E+01  0.1256497E-01  0.1570819E+01  0.2664180E-08  0.1562806E+01  0.1877924E-02 -0.2822114E-04  0.1775500E-15  0.1761246E+01
  0.1223108E+03  0.1011692E+00  0.1922881E-05  0.2428605E-08 -0.9678171E+00  0.3817271E-01  0.1570838E+01  0.3691102E-09 -0.3070384E+01  0.1370814E-01  0.1909801E-05  0.9801139E-15  0.3120795E+01
  0.1240054E+03  0.1320913E+00 -0.3141587E+01  0.5293367E-08 -0.1363422E+01  0.4941623E-01 -0.1570805E+01  0.1115168E-08 -0.1623986E+01  0.1789885E-01 -0.3141587E+01  0.2823111E-14 -0.3074488E+01
  0.1257000E+03  0.3711258E-01  0.1338908E-04  0.1125390E-08  0.1234111E+01  0.5726220E-01 -0.1570767E+01  0.1134279E-08 -0.1543944E+01  0.5029125E-02  0.1307757E-04  0.2851975E-14  0.3133685E+01
