VARIABLES="w (rad/s)"
"abs(F   1   1)" "angle(F   1   1)"
"abs(F   1   2)" "angle(F   1   2)"
"abs(F   1   3)" "angle(F   1   3)"
"abs(F   1   4)" "angle(F   1   4)"
"abs(F   1   5)" "angle(F   1   5)"
"abs(F   1   6)" "angle(F   1   6)"
Zone t="Diffraction force - beta =   0.000 deg",I=    75,F=POINT
  0.3000000E+00  0.1437973E+01  0.3141588E+01  0.9318000E-04  0.1571145E+01  0.2081899E+04 -0.1570805E+01  0.1983544E-04 -0.1570787E+01  0.2721983E+00 -0.3141570E+01  0.1327466E-11  0.1571094E+01
  0.1994595E+01  0.6179986E+02 -0.3141365E+01  0.7138666E-04  0.1565943E+01  0.1870281E+04 -0.1586556E+01  0.4905550E-04  0.1575914E+01  0.1154568E+02 -0.3141365E+01  0.1938699E-11 -0.1605048E+01
  0.3689189E+01  0.1935188E+03 -0.3136101E+01  0.2055752E-03 -0.1788201E+01  0.1439628E+04 -0.1712047E+01  0.2098862E-04 -0.1610609E+01  0.3517062E+02 -0.3136103E+01  0.9887755E-12  0.1618423E+01
  0.5383784E+01  0.3318242E+03 -0.3133207E+01  0.1522516E-03 -0.1314115E+01  0.1023514E+04 -0.2023175E+01  0.4419970E-04 -0.2004493E+01  0.5792648E+02 -0.3133220E+01  0.1633191E-11 -0.3048963E+00
  0.7078378E+01  0.3741427E+03  0.3030028E+01  0.6419836E-04 -0.2019295E+01  0.7168972E+03 -0.2520987E+01  0.7124193E-04 -0.1495553E+01  0.6237259E+02  0.3030047E+01  0.1496865E-11 -0.1465578E+01
  0.8772973E+01  0.3281195E+03  0.2636258E+01  0.7938809E-04 -0.2022456E+01  0.5082893E+03  0.3091090E+01  0.1782404E-04  0.2060366E+00  0.5223780E+02  0.2636576E+01  0.1832558E-11 -0.2576032E+01
  0.1046757E+02  0.2642664E+03  0.1963921E+01  0.4464774E-04  0.7463824E+00  0.3667044E+03  0.2253787E+01  0.2479858E-04 -0.1763529E+01  0.4025107E+02  0.1964625E+01  0.9509155E-12 -0.7735096E+00
  0.1216216E+02  0.2093821E+03  0.1059911E+01  0.1641191E-05 -0.2782748E+01  0.2629949E+03  0.1228308E+01  0.7282528E-05  0.1694359E+01  0.3061623E+02  0.1060017E+01  0.7170140E-12  0.2147054E+00
  0.1385676E+02  0.1727862E+03  0.4811944E-01  0.1124588E-04 -0.2565381E+00  0.2045724E+03  0.1160245E+00  0.2498339E-05  0.1550176E+01  0.2565423E+02  0.6429014E-01  0.2156831E-11  0.2611413E+01
  0.1555135E+02  0.1353771E+03 -0.1299652E+01  0.2738034E-04 -0.2030699E+01  0.1978064E+03 -0.1011590E+01  0.3330277E-05 -0.8645667E+00  0.1876320E+02 -0.1296185E+01  0.1411463E-11  0.2192838E+01
  0.1724594E+02  0.1125324E+03 -0.2681928E+01  0.7065964E-05  0.2093552E+01  0.1269544E+03 -0.2644825E+01  0.4302859E-05 -0.2069034E+01  0.1621955E+02 -0.2681479E+01  0.4528919E-11 -0.2989964E+00
  0.1894054E+02  0.9134176E+02  0.1953379E+01  0.7468975E-05 -0.4896262E+00  0.1063151E+03  0.2069102E+01  0.1958372E-05  0.2088903E+01  0.1237969E+02  0.1956109E+01  0.3043795E-11  0.2372645E+00
  0.2063513E+02  0.7595154E+02  0.2184688E+00  0.6257754E-05 -0.2347318E+01  0.8278366E+02  0.2619066E+00  0.9105194E-06 -0.2056395E+01  0.1038498E+02  0.2181762E+00  0.1002519E-11 -0.1507852E+01
  0.2232973E+02  0.6391571E+02 -0.1718012E+01  0.2802150E-05 -0.1994443E+01  0.6922127E+02 -0.1647464E+01  0.1841449E-05 -0.1848881E+01  0.8529069E+01 -0.1714298E+01  0.3254962E-11  0.1245454E+00
  0.2402432E+02  0.5407689E+02  0.2523429E+01  0.6024159E-06 -0.3532889E+00  0.5835255E+02  0.2487948E+01  0.1181781E-05 -0.1390244E-01  0.7250206E+01  0.2523316E+01  0.1775882E-11 -0.3058475E+01
  0.2571892E+02  0.4503338E+02  0.3297478E+00  0.5100171E-06 -0.9831260E+00  0.4771870E+02  0.3546797E+00  0.4298023E-06  0.2021394E-01  0.6027486E+01  0.3302031E+00  0.1819246E-11 -0.2878156E+01
  0.2741351E+02  0.4037626E+02 -0.2106503E+01  0.2138785E-05  0.1558716E+01  0.4039880E+02 -0.2016617E+01  0.6231127E-06 -0.1513362E+01  0.5345422E+01 -0.2102161E+01  0.8382350E-12  0.5270317E+00
  0.2910810E+02  0.3336684E+02  0.1724877E+01  0.1030629E-05 -0.1829458E+01  0.3359481E+02  0.1755741E+01  0.4968694E-06  0.1699488E+01  0.4441194E+01  0.1724684E+01  0.1140025E-11 -0.3161942E+00
  0.3080270E+02  0.2880642E+02 -0.9366255E+00  0.2013375E-05 -0.3039159E+01  0.2809800E+02 -0.8939328E+00  0.3897751E-06  0.3422879E+00  0.3834291E+01 -0.9362266E+00  0.1987166E-11 -0.7024334E+00
  0.3249730E+02  0.2450297E+02  0.2547461E+01  0.1414652E-05 -0.1919103E+01  0.2293055E+02  0.2461013E+01  0.3896741E-06  0.9778704E-01  0.3260904E+01  0.2548746E+01  0.3815011E-11  0.2854082E+01
  0.3419189E+02  0.2095664E+02 -0.4182848E+00  0.1082528E-05  0.1915860E+01  0.2037213E+02 -0.3473706E+00  0.5456741E-06 -0.1996148E+01  0.2791203E+01 -0.4191618E+00  0.1537206E-11 -0.2712368E+01
  0.3588649E+02  0.1788446E+02  0.2761830E+01  0.2085868E-05 -0.3467498E+00  0.1590176E+02  0.2849062E+01  0.2222028E-06  0.1532683E+00  0.2384258E+01  0.2761267E+01  0.1104123E-12  0.1676038E+01
  0.3758108E+02  0.1500743E+02 -0.4818866E+00  0.8001828E-06 -0.2969825E+01  0.3347407E+01 -0.7944500E-01  0.9121555E-07 -0.2292857E+01  0.1997030E+01 -0.4812536E+00  0.5129576E-12  0.2975957E+01
  0.3927567E+02  0.1224638E+02  0.2426367E+01  0.2976380E-06 -0.4944545E+00  0.1604401E+02  0.2129822E+01  0.1344647E-06  0.2974088E+01  0.1627575E+01  0.2425687E+01  0.1603428E-11 -0.8314630E+00
  0.4097027E+02  0.9203564E+01 -0.1066341E+01  0.3548959E-06 -0.5577797E+00  0.1137941E+02 -0.1244851E+01  0.1005174E-06  0.9966843E+00  0.1227074E+01 -0.1067129E+01  0.2976702E-11  0.8426037E+00
  0.4266486E+02  0.3036328E+01  0.1796606E+01  0.1624254E-06  0.2839592E+01  0.8433949E+01  0.1420638E+01  0.2894090E-07  0.1437079E+01  0.3991821E+00  0.1796414E+01  0.1704396E-11 -0.2281800E+01
  0.4435946E+02  0.1285898E+02 -0.2730607E+01  0.5498610E-06  0.1018227E+01  0.4124305E+01 -0.2260041E+01  0.7547075E-08 -0.2423531E+01  0.1739056E+01 -0.2730066E+01  0.1283238E-11 -0.5372497E+00
  0.4605405E+02  0.5985504E+01 -0.1356602E+00  0.3844582E-07 -0.4914786E+00  0.6020438E+01 -0.2961675E+01  0.8126376E-07 -0.2663067E+01  0.7946594E+00 -0.1358052E+00  0.1747090E-11 -0.2965565E+01
  0.4774865E+02  0.6349622E+00  0.2556863E+01  0.3517115E-06  0.1822761E+01  0.8008775E+01  0.1802133E+01  0.1860784E-06  0.1640437E+01  0.6878672E-01  0.2628842E+01  0.4818676E-12 -0.2792810E+00
  0.4944324E+02  0.1248178E+02 -0.2926770E+01  0.1572352E-06 -0.1368213E+01  0.4702966E+00  0.1037727E+01  0.3481009E-07 -0.2424818E+01  0.1690693E+01 -0.2926865E+01  0.6084266E-12 -0.9824868E+00
  0.5113783E+02  0.1145982E+01 -0.2937628E+00  0.2476324E-06  0.1177839E+01  0.1842151E+02 -0.1822810E+01  0.1613038E-06  0.1130289E+01  0.1464298E+00 -0.2922105E+00  0.6183717E-12 -0.2686138E+01
  0.5283243E+02  0.1332712E+02 -0.3647628E+00  0.9107576E-07  0.2541165E+01  0.2089447E+00 -0.2307056E+01  0.2495915E-07 -0.1516110E+01  0.1807949E+01 -0.3638391E+00  0.1073839E-12 -0.8757259E+00
  0.5452702E+02  0.5714693E-01 -0.1243667E+01  0.3191383E-06 -0.9857575E+00  0.1495515E+02  0.1337839E+01  0.1112647E-06  0.1967052E+01  0.1104278E-01 -0.8386319E+00  0.1446777E-11 -0.3008600E+01
  0.5622162E+02  0.9866188E+01  0.3141119E+01  0.2079129E-06 -0.1407129E+01  0.2638947E+01  0.1314274E+01  0.1213305E-07 -0.1890129E+01  0.1334885E+01  0.3141133E+01  0.2640158E-12 -0.4032899E+00
  0.5791621E+02  0.3898342E+01  0.2822089E+01  0.3586571E-07  0.1904699E+01  0.6269629E+01 -0.1489673E+01  0.3312919E-07 -0.2379490E+01  0.5302818E+00  0.2822290E+01  0.7024762E-12  0.2462729E+01
  0.5961081E+02  0.1488756E+01 -0.2693223E-03  0.2902099E-05 -0.1609167E+01  0.3264564E+01 -0.1744446E+01  0.4289545E-07 -0.1957996E+01  0.1982961E+00  0.1848258E-03  0.2778968E-12 -0.1198162E-02
  0.6130540E+02  0.3470488E+01 -0.7559552E+00  0.5116867E-06 -0.2869823E+01  0.7394760E+01  0.7394572E+00  0.6461558E-06 -0.1593294E+01  0.4692773E+00 -0.7593474E+00  0.1938579E-12  0.5593152E+00
  0.6300000E+02  0.1677131E+02 -0.4611858E+00  0.7961255E-06  0.2147304E+01  0.9581056E+01  0.1705028E+01  0.1194144E-06 -0.1893575E+01  0.2272750E+01 -0.4611799E+00  0.3470214E-12  0.2744527E+01
  0.6469460E+02  0.1263324E+01  0.2708467E+01  0.9945205E-06 -0.2852813E+01  0.1481193E+02 -0.1563587E+01  0.6052917E-06  0.1507062E+01  0.1720096E+00  0.2710345E+01  0.6072756E-12 -0.1160563E+01
  0.6638919E+02  0.6246258E+01 -0.1246380E+00  0.1054160E-04 -0.1452437E+01  0.4552242E+02  0.1431387E+01  0.4457748E-06  0.1620877E+01  0.8489047E+00 -0.1246129E+00  0.5887389E-13  0.4994972E+00
  0.6808379E+02  0.1037415E+02  0.3088847E+01  0.3088517E-06 -0.2611538E+01  0.1518002E+01  0.1473364E+01  0.2256839E-06  0.2038474E+01  0.1402703E+01  0.3088578E+01  0.2347965E-12 -0.2766651E+01
  0.6977838E+02  0.5245798E+01 -0.9281732E-01  0.1190406E-05 -0.2821874E+01  0.1822386E+01  0.1457114E+01  0.2328369E-06 -0.1422685E+01  0.7100348E+00 -0.9299013E-01  0.1342023E-11 -0.3133817E+01
  0.7147298E+02  0.3856963E+01  0.3117525E+01  0.1313122E-05 -0.2233361E+01  0.2175134E+02  0.1258466E+01  0.9297741E-06 -0.1427749E+01  0.5194159E+00  0.3117333E+01  0.4977095E-13  0.3506649E+00
  0.7316756E+02  0.9373446E+01  0.3130743E+01  0.1312526E-05 -0.3112252E+01  0.3573757E+01  0.1565379E+01  0.1397032E-07  0.4268969E+00  0.1267398E+01  0.3130628E+01  0.8062043E-13  0.1054469E+01
  0.7486216E+02  0.6062042E+00 -0.3109670E+01  0.9242374E-06  0.1414672E+01  0.5439813E+01 -0.1665801E+01  0.6623179E-07  0.2178186E+01  0.8241026E-01 -0.3109906E+01  0.1639503E-13 -0.1495071E+01
  0.7655676E+02  0.6349918E+01  0.1912733E-02  0.8719267E-06  0.1399753E+01  0.1234460E+00  0.1632979E+01  0.8871299E-07 -0.1484263E+01  0.8594300E+00  0.1888559E-02  0.8615389E-13 -0.9841846E-01
  0.7825135E+02  0.7807873E+01 -0.3918316E-01  0.3279486E-06  0.2305398E+01  0.5260100E+01  0.1621871E+01  0.8989260E-07  0.1597774E+01  0.1057254E+01 -0.3918306E-01  0.1748400E-12 -0.8025409E-01
  0.7994595E+02  0.6207414E+01 -0.4604025E-01  0.5683397E-06  0.1459199E+01  0.5661448E+01  0.1571466E+01  0.2878096E-07  0.1314957E+01  0.8406751E+00 -0.4605613E-01  0.4794023E-12  0.2799079E+01
  0.8164054E+02  0.3118974E+01 -0.2797873E-02  0.1980478E-06 -0.1495909E+01  0.3460202E+01  0.1546551E+01  0.2820640E-06 -0.1601704E+01  0.4224638E+00 -0.2822005E-02  0.4915628E-13 -0.7162941E-01
  0.8333514E+02  0.3422780E-01  0.9762199E-02  0.2703029E-06 -0.1419117E+01  0.2985413E+01  0.1567186E+01  0.1523229E-06 -0.1571575E+01  0.4806903E-02  0.9360811E-02  0.6316694E-13 -0.2376043E+01
  0.8502972E+02  0.1403057E+01 -0.3113628E+01  0.4653978E-06 -0.1696948E+01  0.7030842E+01  0.1616420E+01  0.1234301E-06  0.1504638E+01  0.1895758E+00 -0.3113537E+01  0.4051560E-13 -0.1184494E+00
  0.8672433E+02  0.1487107E+01  0.6337438E-01  0.9198040E-06  0.1682927E+01  0.8774953E+01  0.1625374E+01  0.1145779E-06  0.1378764E+01  0.2018826E+00  0.6324887E-01  0.1022215E-12  0.2911487E+01
  0.8841892E+02  0.3794900E+01  0.1714032E-01  0.4725707E-06  0.1672198E+01  0.1454287E+01 -0.1533466E+01  0.9457082E-07  0.1766207E+01  0.5137815E+00  0.1717488E-01  0.1202401E-12 -0.5727831E-01
  0.9011351E+02  0.2427181E+01  0.1840365E-01  0.3046507E-06 -0.2019835E+01  0.4943565E+00  0.1580888E+01  0.1193891E-06  0.1508128E+01  0.3284967E+00  0.1843074E-01  0.3131235E-13 -0.1659109E+01
  0.9180811E+02  0.1237832E+01  0.3138483E+01  0.1167929E-05  0.1551141E+01  0.4663955E+01 -0.1574712E+01  0.1272028E-07  0.2006909E+01  0.1679530E+00  0.3138486E+01  0.3964898E-14 -0.2144236E+01
  0.9350270E+02  0.2989558E+00  0.3139883E+01  0.1005620E-06 -0.1417830E+01  0.8583853E+00 -0.1569406E+01  0.1030551E-06 -0.1599635E+01  0.4048185E-01  0.3139881E+01  0.2139391E-12  0.3134068E+01
  0.9519730E+02  0.1274354E-01  0.3120114E+01  0.2963175E-06  0.1656176E+01  0.2100372E+01  0.1573157E+01  0.1155678E-06 -0.1564941E+01  0.1584002E-02  0.3118107E+01  0.1728843E-13 -0.2700922E+01
  0.9689189E+02  0.2939917E+00 -0.3137867E+01  0.4386167E-06 -0.1588800E+01  0.2020529E+01  0.1576898E+01  0.6509755E-07 -0.1570426E+01  0.3969169E-01 -0.3137852E+01  0.2058140E-13  0.2631325E+00
  0.9858649E+02  0.2495048E+00  0.8019026E-02  0.1332370E-07  0.1617265E+01  0.1543722E+00  0.1578436E+01  0.7982272E-08 -0.1719349E+01  0.3377827E-01  0.8028940E-02  0.4983983E-13  0.7308798E-01
  0.1002811E+03  0.1176950E+01 -0.3131390E+01  0.1305329E-07 -0.1447051E+01  0.7717972E+00 -0.1560553E+01  0.4175306E-08  0.1785644E+01  0.1594995E+00 -0.3131386E+01  0.1916100E-13 -0.1181716E+01
  0.1019757E+03  0.7019411E+00 -0.3134755E+01  0.1416544E-06 -0.1403765E+01  0.1249741E+01  0.1577793E+01  0.1307680E-07  0.1585664E+01  0.9500783E-01 -0.3134745E+01  0.5470786E-14  0.5424317E+00
  0.1036703E+03  0.2397867E+00  0.1220205E-01  0.2101223E-07  0.1807959E+01  0.1548894E-01  0.1596600E+01  0.8734640E-09 -0.1402096E+01  0.3244065E-01  0.1223111E-01  0.2501432E-13 -0.3118705E+01
  0.1053649E+03  0.8449817E+00 -0.3133957E+01  0.2161137E-07 -0.7777652E+00  0.1358531E+01  0.1579050E+01  0.2499566E-07  0.1604405E+01  0.1144345E+00 -0.3133948E+01  0.3754522E-13 -0.2222575E-01
  0.1070595E+03  0.7786967E+00 -0.4092756E-03  0.6124205E-08  0.2570478E+01  0.1016694E+00  0.1570643E+01  0.5485167E-08 -0.1880438E+01  0.1055388E+00 -0.4091873E-03  0.1991863E-13 -0.2994313E+01
  0.1087541E+03  0.1455142E+00 -0.3141288E+01  0.2384737E-07 -0.1522247E+01  0.1343611E+00  0.1571322E+01  0.5010908E-08 -0.1554415E+01  0.1972138E-01 -0.3141288E+01  0.3067583E-14  0.2704376E+01
  0.1104486E+03  0.1527306E+00  0.6876901E-03  0.8024108E-07 -0.1549702E+01  0.3685045E+00 -0.1570036E+01  0.2664673E-08  0.1605617E+01  0.2067716E-01  0.6891848E-03  0.2104005E-14  0.3027567E+01
  0.1121432E+03  0.2592977E+00 -0.3140840E+01  0.2879135E-07 -0.1619388E+01  0.2459509E+00 -0.1570056E+01  0.1175990E-07 -0.1563314E+01  0.3514629E-01 -0.3140839E+01  0.1946159E-13 -0.1358368E+00
  0.1138378E+03  0.2758072E+00  0.6535230E-03  0.7356183E-07 -0.1548579E+01  0.2689770E+00  0.1571451E+01  0.3259513E-08 -0.1390405E+01  0.3739584E-01  0.6536400E-03  0.2723723E-14 -0.7380936E+00
  0.1155324E+03  0.4317228E-01  0.2099233E-03  0.1810028E-08 -0.5101905E+00  0.6709361E-01 -0.1570544E+01  0.6145036E-09  0.1952487E+01  0.5848035E-02  0.2099623E-03  0.5710515E-14 -0.2773228E+01
  0.1172270E+03  0.9389667E-02 -0.1918184E-03  0.1786054E-07  0.1612904E+01  0.1622328E+00  0.1570788E+01  0.1892171E-08  0.1507854E+01  0.1280857E-02 -0.1912410E-03  0.1569805E-14 -0.5003499E+00
  0.1189216E+03  0.6781599E-01  0.1055459E-04  0.2750149E-07  0.1502482E+01  0.8797062E-01  0.1570798E+01  0.4690110E-08 -0.1574375E+01  0.9195779E-02  0.1085178E-04  0.8495495E-14 -0.3127207E+01
  0.1206162E+03  0.1541613E-01 -0.2417409E-04  0.8232279E-08 -0.1518462E+01  0.1048348E-01  0.1570821E+01  0.2550588E-08  0.1563609E+01  0.2085462E-02 -0.2475676E-04  0.1706711E-15  0.1852761E+01
  0.1223108E+03  0.9693811E-01  0.1719248E-05  0.2358441E-08 -0.9487286E+00  0.4085434E-01  0.1570835E+01  0.3754716E-09 -0.2999717E+01  0.1314374E-01  0.1708907E-05  0.9788642E-15  0.3071090E+01
  0.1240054E+03  0.1274283E+00 -0.3141587E+01  0.5103512E-08 -0.1313426E+01  0.5213191E-01 -0.1570804E+01  0.1092327E-08 -0.1626611E+01  0.1727684E-01 -0.3141587E+01  0.2839078E-14 -0.3064452E+01
  0.1257000E+03  0.3718436E-01  0.1388255E-04  0.1206120E-08  0.1250998E+01  0.5514226E-01 -0.1570767E+01  0.1135119E-08 -0.1544365E+01  0.5038701E-02  0.1355560E-04  0.2843301E-14 -0.3133661E+01
