VARIABLES="w (rad/s)"
"abs(F   1   1)" "angle(F   1   1)"
"abs(F   1   2)" "angle(F   1   2)"
"abs(F   1   3)" "angle(F   1   3)"
"abs(F   1   4)" "angle(F   1   4)"
"abs(F   1   5)" "angle(F   1   5)"
"abs(F   1   6)" "angle(F   1   6)"
Zone t="FKforce - beta =   0.000",I=    75,F=POINT
  0.3000000E+00  0.1143419E+01  0.3141587E+01  0.9333156E-04  0.1571057E+01  0.2085480E+04 -0.1570796E+01  0.2017617E-04 -0.1570780E+01  0.2260604E+00 -0.3141566E+01  0.1328715E-11  0.1571120E+01
  0.1994595E+01  0.4980634E+02 -0.3141593E+01  0.7524062E-04  0.1570763E+01  0.2033913E+04 -0.1570796E+01  0.4515424E-04  0.1570585E+01  0.9778724E+01  0.3141592E+01  0.1919473E-11 -0.1603192E+01
  0.3689189E+01  0.1628042E+03 -0.3141593E+01  0.1954232E-03 -0.1578424E+01  0.1890023E+04 -0.1570796E+01  0.2071961E-04 -0.1564020E+01  0.3149412E+02  0.3141593E+01  0.8458760E-12  0.1703487E+01
  0.5383784E+01  0.3136585E+03  0.3141593E+01  0.8311521E-04 -0.1527205E+01  0.1622599E+04 -0.1570796E+01  0.5878295E-04 -0.1568182E+01  0.5967670E+02  0.3141593E+01  0.1107923E-11 -0.3400041E+00
  0.7078378E+01  0.4453116E+03  0.3141593E+01  0.4402746E-04 -0.1672571E+01  0.1213510E+04 -0.1570796E+01  0.6749069E-04 -0.1572245E+01  0.8403886E+02 -0.3141593E+01  0.9748299E-12 -0.1728156E+01
  0.8772973E+01  0.4738599E+03  0.3141593E+01  0.1009928E-04  0.1226327E+01  0.6993925E+03 -0.1570796E+01  0.6119376E-05 -0.1468267E+01  0.9124332E+02  0.3141593E+01  0.1118603E-11 -0.2504007E+01
  0.1046757E+02  0.3343203E+03 -0.3141593E+01  0.1840679E-04  0.1502640E+01  0.2023791E+03 -0.1570796E+01  0.7473109E-05 -0.1551852E+01  0.7181593E+02  0.3141593E+01  0.7108913E-12 -0.1807896E+01
  0.1216216E+02  0.6557594E+02 -0.3141593E+01  0.6393423E-05 -0.2625118E+01  0.1034926E+03  0.1570796E+01  0.7340006E-05  0.1593447E+01  0.3128596E+02 -0.3141593E+01  0.2016313E-12 -0.1414298E+00
  0.1385676E+02  0.1517324E+03 -0.6543031E-07  0.1135887E-05 -0.4919769E+00  0.1239721E+03  0.1570796E+01  0.8794049E-06  0.1647187E+01  0.5544831E+01  0.1921489E-06  0.1590530E-11  0.2989113E+01
  0.1555135E+02  0.1362924E+03  0.6149258E-07  0.1744806E-04 -0.1651858E+01  0.1945492E+02 -0.1570796E+01  0.8463887E-06  0.1303115E+01  0.1297937E+02 -0.2583146E-08  0.5819882E-12 -0.1868173E+01
  0.1724594E+02  0.3890402E+02 -0.3141593E+01  0.3432418E-05  0.1551929E+01  0.7491520E+02 -0.1570796E+01  0.5659964E-07 -0.8873823E+00  0.3064419E+01 -0.3141593E+01  0.3236560E-11 -0.5326276E-01
  0.1894054E+02  0.8562580E+02 -0.3141593E+01  0.1263418E-05 -0.2097234E+01  0.1530148E+02  0.1570797E+01  0.2430014E-06  0.1677472E+01  0.8210624E+01 -0.3141593E+01  0.2236900E-11 -0.8925792E-01
  0.2063513E+02  0.3390821E+02 -0.1763317E-07  0.5208366E-05 -0.1543205E+01  0.4404249E+02  0.1570796E+01  0.7658076E-06 -0.1609494E+01  0.4412528E+01  0.7107555E-07  0.2862842E-11 -0.9414282E-01
  0.2232973E+02  0.3712087E+02 -0.2346316E-06  0.8347662E-06 -0.3017992E+00  0.2870959E+02 -0.1570796E+01  0.6495591E-07  0.2222094E+01  0.3704489E+01 -0.1747257E-07  0.1418445E-11  0.3338047E+00
  0.2402432E+02  0.4276411E+02  0.3141593E+01  0.8377052E-06 -0.1587109E+01  0.8481596E+01 -0.1570797E+01  0.3085514E-07  0.2016726E+01  0.5321530E+01  0.3141593E+01  0.1903980E-11  0.3097028E+01
  0.2571892E+02  0.1399603E+02 -0.3407860E-06  0.1315073E-06  0.2449971E+01  0.2450908E+02  0.1570796E+01  0.3801520E-06 -0.1647516E+01  0.2127559E+01  0.2486923E-06  0.8517708E-12  0.3113304E+01
  0.2741351E+02  0.1051358E+02 -0.1088982E-05  0.1438929E-05  0.1534548E+01  0.2018237E+02 -0.1570796E+01  0.1725996E-06 -0.1606552E+01  0.1083304E+01 -0.1227713E-05  0.8922006E-12 -0.1225730E-01
  0.2910810E+02  0.2031813E+02  0.3141592E+01  0.4572187E-06  0.1001940E+01  0.9741948E+01  0.1570796E+01  0.5411843E-07  0.6579847E+00  0.2524513E+01  0.3141592E+01  0.1579864E-11  0.1287459E+00
  0.3080270E+02  0.2035013E+02 -0.1873560E-06  0.3816425E-06 -0.1360366E+01  0.1529428E+01 -0.1570798E+01  0.7896388E-07  0.1480500E+01  0.2641051E+01 -0.1800634E-06  0.3645358E-12 -0.1943102E+00
  0.3249730E+02  0.1702663E+02  0.3141593E+01  0.3600820E-06 -0.1205122E+01  0.2756168E+01 -0.1570800E+01  0.2013707E-07 -0.1648726E+01  0.2255357E+01 -0.3141593E+01  0.3601110E-11 -0.3122602E+01
  0.3419189E+02  0.1383683E+02  0.7409083E-06  0.2600266E-06  0.1549258E+01  0.4095952E+01  0.1570795E+01  0.2812154E-06 -0.1580391E+01  0.1850989E+01  0.7847968E-06  0.5140333E-12 -0.3136367E+01
  0.3588649E+02  0.1178789E+02 -0.3141592E+01  0.2184596E-07 -0.2446065E+01  0.3661713E+01 -0.1570795E+01  0.5870539E-07  0.1382243E+01  0.1580822E+01 -0.3141592E+01  0.3109692E-11  0.3108705E+01
  0.3758108E+02  0.1061277E+02  0.1291735E-06  0.4132956E-06 -0.1485140E+01  0.2142838E+01  0.1570789E+01  0.6297381E-07 -0.1496242E+01  0.1419884E+01  0.2046316E-06  0.5799414E-12  0.3113008E+01
  0.3927567E+02  0.9488884E+01 -0.3141592E+01  0.9870500E-07 -0.1789587E+01  0.1005781E+00  0.1570812E+01  0.8652832E-07 -0.1692183E+01  0.1263588E+01 -0.3141592E+01  0.1389233E-11  0.1952148E-01
  0.4097027E+02  0.7412020E+01 -0.8282872E-06  0.1774910E-06 -0.1513104E+01  0.2628180E+01 -0.1570793E+01  0.3857230E-07  0.1458791E+01  0.9807446E+00 -0.8584537E-06  0.1917978E-11  0.8058548E-02
  0.4266486E+02  0.3698534E+01  0.3141590E+01  0.5326029E-07  0.2395668E+01  0.4552475E+01  0.1570801E+01  0.1434446E-07 -0.1231495E+01  0.4821291E+00  0.3141590E+01  0.2582585E-11 -0.3091366E+01
  0.4435946E+02  0.1145925E+01  0.3141590E+01  0.2538585E-06  0.1534099E+01  0.4595469E+01 -0.1570794E+01  0.2530887E-07 -0.1690719E+01  0.1633868E+00  0.3141592E+01  0.1971331E-11  0.9622534E-01
  0.4605405E+02  0.4776114E+01  0.8267825E-06  0.4285639E-07  0.1657827E+01  0.2042694E+01  0.1570796E+01  0.3445681E-07 -0.1713181E+01  0.6430455E+00  0.9906371E-06  0.1009534E-12  0.1138111E+01
  0.4774865E+02  0.4205412E+01 -0.3141593E+01  0.2454395E-06  0.1587872E+01  0.1698917E+01  0.1570795E+01  0.5962969E-08 -0.1961371E+01  0.5609508E+00 -0.3141593E+01  0.2568418E-12 -0.7601654E-02
  0.4944324E+02  0.4231935E+00 -0.3141569E+01  0.4510017E-07 -0.4308707E+00  0.3111395E+01 -0.1570797E+01  0.2255017E-07 -0.1555305E+01  0.5987106E-01 -0.3141567E+01  0.2452796E-12  0.1799032E-02
  0.5113783E+02  0.3633477E+01  0.3116817E-05  0.3456931E-07  0.1957535E+01  0.4415282E+00  0.1570804E+01  0.9379225E-08 -0.1583210E+01  0.4869419E+00  0.3021900E-05  0.7394813E-12 -0.3083760E+01
  0.5283243E+02  0.8350851E+00 -0.3141587E+01  0.1704738E-07  0.8558501E+00  0.2302619E+01  0.1570797E+01  0.3850975E-08 -0.1048586E+01  0.1106274E+00 -0.3141588E+01  0.1488778E-12 -0.4762520E-01
  0.5452702E+02  0.2733040E+01 -0.3141592E+01  0.4447233E-07 -0.1295075E+01  0.4763173E+00 -0.1570799E+01  0.8301488E-08  0.2429912E+01  0.3659300E+00 -0.3141592E+01  0.4320530E-13  0.3059191E+01
  0.5622162E+02  0.1184076E+00 -0.6669857E-05  0.8763053E-07 -0.1613320E+01  0.1857073E+01 -0.1570798E+01  0.9320548E-08 -0.1062011E+01  0.1549424E-01 -0.8054426E-05  0.1366445E-12  0.2712560E+01
  0.5791621E+02  0.2293537E+01  0.1624256E-06  0.1965769E-06 -0.1711018E+01  0.9264572E+00 -0.1570797E+01  0.7567892E-08 -0.3126201E+01  0.3065249E+00  0.5468987E-07  0.1401293E-12  0.2988881E+01
  0.5961081E+02  0.2135573E+01 -0.9899460E-07  0.1141028E-06  0.2045506E+01  0.1478410E+01 -0.1570797E+01  0.5742656E-07 -0.1582960E+01  0.2850843E+00 -0.1016802E-06  0.8994427E-13 -0.1412360E+01
  0.6130540E+02  0.3790810E+00  0.3141571E+01  0.4332030E-06  0.1545533E+01  0.3219175E+01 -0.1570796E+01  0.5157316E-07 -0.1564024E+01  0.5082467E-01  0.3141571E+01  0.3274996E-13  0.2922894E+01
  0.6300000E+02  0.2762150E+01  0.3141593E+01  0.2954497E-07 -0.2459467E+01  0.1654496E+01  0.1570799E+01  0.2698908E-07 -0.3226012E+00  0.3684936E+00  0.3141593E+01  0.7282941E-13  0.8013000E-07
  0.6469460E+02  0.4991228E+00  0.5254427E-05  0.1841717E-07  0.1520207E+01  0.3709387E+00  0.1570792E+01  0.1653190E-07  0.1976150E+01  0.6651936E-01  0.5278292E-05  0.5695445E-13 -0.6241870E-01
  0.6638919E+02  0.2404338E+01 -0.3141591E+01  0.1287275E-06  0.1853071E+01  0.6412014E+00 -0.1570806E+01  0.6442204E-08 -0.3746315E+00  0.3208372E+00 -0.3141591E+01  0.6164368E-13  0.6319742E+00
  0.6808379E+02  0.7188092E+00 -0.1273620E-04  0.1063637E-06  0.1905353E+01  0.9622576E+00 -0.1570805E+01  0.1353868E-08 -0.2015218E+01  0.9595121E-01 -0.1278308E-04  0.3548548E-13 -0.2347345E+01
  0.6977838E+02  0.8667184E+00 -0.3141583E+01  0.1463493E-06  0.1471998E+01  0.7327425E+00  0.1570792E+01  0.3242825E-07 -0.1626469E+01  0.1155958E+00 -0.3141583E+01  0.3146359E-12  0.2162195E+00
  0.7147298E+02  0.1006834E+01 -0.3141588E+01  0.2618180E-07  0.1731559E+01  0.1213936E+01 -0.1570795E+01  0.4269369E-08 -0.2045114E+01  0.1343111E+00 -0.3141588E+01  0.1191616E-13  0.4636476E+00
  0.7316756E+02  0.4079723E+00 -0.2103380E-04  0.3915057E-07 -0.2149727E+01  0.8752636E+00 -0.1570798E+01  0.1181934E-08  0.1496857E+01  0.5445866E-01 -0.2156922E-04  0.3736952E-13  0.3082139E+01
  0.7486216E+02  0.2593967E+00 -0.3158176E-04  0.1639491E-07  0.8011677E+00  0.2678211E+00  0.1570792E+01  0.1394603E-07  0.1629263E+01  0.3461400E-01 -0.3137496E-04  0.2333958E-13  0.2995996E+01
  0.7655676E+02  0.4862394E+00 -0.3141580E+01  0.1666814E-08 -0.1138389E+01  0.5262071E+00  0.1570792E+01  0.4239505E-08 -0.1618869E+01  0.6486578E-01 -0.3141580E+01  0.5241005E-13 -0.1694753E-01
  0.7825135E+02  0.7769751E+00 -0.3141587E+01  0.1140217E-07 -0.4545155E+00  0.3257184E+00  0.1570807E+01  0.2075625E-08  0.1264566E+01  0.1036453E+00 -0.3141587E+01  0.2331363E-13 -0.8663023E+00
  0.7994595E+02  0.6192025E+00 -0.3141589E+01  0.4109544E-08 -0.2504465E+01  0.1488148E+00  0.1570812E+01  0.6205607E-09  0.1154358E+01  0.8259669E-01 -0.3141589E+01  0.1975199E-13  0.2773612E+01
  0.8164054E+02  0.3152457E+00 -0.3141588E+01  0.1174714E-07  0.3007404E+01  0.2904410E-01  0.1570840E+01  0.1866918E-08 -0.2176095E+01  0.4205065E-01 -0.3141588E+01  0.1966568E-13 -0.2698144E+01
  0.8333514E+02  0.9989152E-01  0.3141566E+01  0.6409784E-08  0.7307901E+00  0.1542256E+00 -0.1570799E+01  0.3166072E-08 -0.1277028E+01  0.1332418E-01  0.3141566E+01  0.2486999E-13 -0.8928334E-02
  0.8502972E+02  0.1015616E+00  0.3141572E+01  0.2086536E-07  0.1788539E+01  0.4832773E+00 -0.1570800E+01  0.8427278E-08  0.1617004E+01  0.1354712E-01  0.3141572E+01  0.7036189E-14 -0.6315700E-01
  0.8672433E+02  0.3974211E+00 -0.3141592E+01  0.5545538E-07 -0.1449794E+01  0.3231340E+00 -0.1570797E+01  0.2171358E-08  0.1517157E+01  0.5301206E-01 -0.3141592E+01  0.2763207E-13 -0.8447590E-01
  0.8841892E+02  0.2142628E+00 -0.3141592E+01  0.3830065E-07  0.1571556E+01  0.3518701E+00  0.1570799E+01  0.3549422E-08 -0.1445424E+01  0.2858023E-01 -0.3141592E+01  0.3140185E-14  0.7853982E+00
  0.9011351E+02  0.5341255E-01 -0.3141590E+01  0.1414908E-07 -0.2022025E+01  0.1855953E-01  0.1570788E+01  0.8952404E-09  0.2577824E+01  0.7124642E-02 -0.3141590E+01  0.5950837E-14  0.2449787E+00
  0.9180811E+02  0.2290944E+00 -0.2174901E-05  0.1124256E-07  0.2192550E+01  0.8913479E-01  0.1570791E+01  0.1531900E-08  0.1362689E+01  0.3055924E-01 -0.2102842E-05  0.7053194E-14 -0.2649783E+01
  0.9350270E+02  0.1120722E-01 -0.2485737E-04  0.4040288E-08  0.1426225E+01  0.4843619E-01  0.1570786E+01  0.1776324E-08  0.1658976E+01  0.1494927E-02 -0.2428683E-04  0.1600609E-13 -0.3093020E+01
  0.9519730E+02  0.7201094E-01  0.3141586E+01  0.8139921E-08  0.1860883E+01  0.6772801E-01 -0.1570809E+01  0.4285448E-09 -0.1745714E+01  0.9605605E-02  0.3141586E+01  0.3690552E-14 -0.1206237E+00
  0.9689189E+02  0.5216891E-01  0.3141586E+01  0.7652218E-08 -0.1627877E+01  0.8071171E-01 -0.1570796E+01  0.8056095E-09  0.1685069E+01  0.6958857E-02  0.3141586E+01  0.2288783E-15  0.1815775E+01
  0.9858649E+02  0.1364713E-02 -0.3141170E+01  0.1534865E-08 -0.2119346E+01  0.8729318E-02 -0.1570835E+01  0.3603252E-09  0.2184004E+01  0.1820310E-03 -0.3141169E+01  0.2777777E-14  0.3997869E-01
  0.1002811E+03  0.8100746E-01  0.2970473E-05  0.2187633E-08  0.2280866E+01  0.3694693E-01 -0.1570811E+01  0.1448190E-09 -0.2233767E+01  0.1080564E-01  0.2890010E-05  0.3775167E-15  0.1869295E+01
  0.1019757E+03  0.1558618E-01 -0.3141574E+01  0.3611251E-08 -0.1534522E+01  0.6032154E-01 -0.1570797E+01  0.2217396E-09 -0.6369385E+00  0.2079033E-02 -0.3141574E+01  0.4333071E-14  0.3844259E-01
  0.1036703E+03  0.1414642E-01 -0.6797412E-05  0.2968814E-08  0.1558542E+01  0.1587346E-01 -0.1570816E+01  0.6805452E-09 -0.1544065E+01  0.1887013E-02 -0.6323524E-05  0.2729094E-14  0.3060141E+01
  0.1053649E+03  0.3063177E-02 -0.1580998E-04  0.4969779E-08  0.1559816E+01  0.7878409E-01 -0.1570796E+01  0.4468260E-09  0.1337666E+01  0.4085939E-03 -0.1403216E-04  0.7575798E-15 -0.2067219E+01
  0.1070595E+03  0.3766667E-01  0.3141591E+01  0.9937494E-09  0.1194029E+01  0.3428094E-01  0.1570800E+01  0.1151528E-09 -0.9778650E+00  0.5024393E-02  0.3141591E+01  0.2950458E-15  0.2289626E+01
  0.1087541E+03  0.6141222E-02 -0.5880269E-04  0.1440658E-08  0.1565746E+01  0.1337465E-01 -0.1570788E+01  0.4730739E-10 -0.1546762E+01  0.8191771E-03 -0.5869247E-04  0.1376422E-14  0.6053202E-01
  0.1104486E+03  0.4991845E-02  0.4354050E-04  0.5202341E-09 -0.1574293E+01  0.1320548E-01  0.1570806E+01  0.1394348E-09 -0.1306833E+01  0.6658720E-03  0.4381712E-04  0.3065703E-15  0.9065989E-01
  0.1121432E+03  0.1071041E-01 -0.1546166E-04  0.9766669E-09  0.1466309E+01  0.7143841E-03  0.1570872E+01  0.2038263E-10  0.2466852E+01  0.1428670E-02 -0.1557893E-04  0.3356589E-15  0.1243550E+00
  0.1138378E+03  0.1588816E-01  0.3141584E+01  0.3905536E-09  0.1411773E+01  0.4005634E-02  0.1570824E+01  0.6279802E-10  0.1752836E+01  0.2119339E-02  0.3141584E+01  0.5076104E-16 -0.9922721E+00
  0.1155324E+03  0.3885645E-03  0.5243062E-05  0.1944533E-09  0.1266795E+01  0.2623489E-02  0.1570794E+01  0.1349765E-10 -0.2140110E+01  0.5182877E-04  0.4492305E-05  0.3071979E-15  0.2819842E+01
  0.1172270E+03  0.4217851E-02  0.3141576E+01  0.1085944E-09 -0.3091321E+01  0.3139233E-02 -0.1570793E+01  0.3703531E-10  0.1674970E+01  0.5626247E-03  0.3141576E+01  0.1003482E-15 -0.1824161E+01
  0.1189216E+03  0.3769242E-02 -0.3141586E+01  0.1589093E-09  0.2782997E+00  0.2587405E-04 -0.1571441E+01  0.2914022E-11 -0.1929567E+01  0.5027784E-03 -0.3141586E+01  0.4191574E-15 -0.3025451E+01
  0.1206162E+03  0.1555858E-02  0.6846385E-05  0.7609922E-10  0.1139223E+01  0.2081492E-02 -0.1570784E+01  0.1136116E-09 -0.1596816E+01  0.2075379E-03  0.6590988E-05  0.1734723E-16 -0.2498091E+01
  0.1223108E+03  0.4231091E-02 -0.3141586E+01  0.8372571E-10  0.1606108E+01  0.2681631E-02  0.1570785E+01  0.2706057E-10 -0.1701404E+01  0.5643905E-03 -0.3141586E+01  0.4869601E-16  0.1499489E+01
  0.1240054E+03  0.4663015E-02  0.1085227E-05  0.3218041E-09  0.8631663E+00  0.2715683E-02 -0.1570788E+01  0.2302383E-10  0.1642456E+01  0.6220056E-03  0.1074715E-05  0.3259249E-16 -0.2010639E+01
  0.1257000E+03  0.7178169E-04  0.2690155E-03  0.8309325E-10  0.1481747E+01  0.2119936E-02  0.1570817E+01  0.9663381E-12 -0.2060754E+01  0.9575387E-05  0.2646214E-03  0.4592924E-16 -0.1380808E+01
