VARIABLES="Period (s)" "|Fx| (N/m)" "|Fy| (N/m)" "|Fz| (N/m)" "|Cx| (N)" "|Cy| (N)" "|Cz| (N)" "ang(Fx) (°)" "ang(Fy) (°)" "ang(Fz) (°)" "ang(Cx) (°)" "ang(Cy) (°)" "ang(Cz) (°)"
Zone t="Corps  1"
Zone t="Diffraction force - beta =   0.000 deg",I=    75,F=POINT
 0.3000  0.143797E+01  0.931800E-04  0.208190E+04  0.198354E-04  0.272198E+00  0.132747E-11 -270.00 -180.02    0.00    0.00   90.00 -180.02
 1.9946  0.617999E+02  0.713867E-04  0.187028E+04  0.490555E-04  0.115457E+02  0.193870E-11   89.99 -179.72    0.90 -180.29   89.99    1.96
 3.6892  0.193519E+03  0.205575E-03  0.143963E+04  0.209886E-04  0.351706E+02  0.988775E-12   89.69   12.46    8.09    2.28   89.69 -182.73
 5.3838  0.331824E+03  0.152252E-03  0.102351E+04  0.441997E-04  0.579265E+02  0.163319E-11   89.52  -14.71   25.92   24.85   89.52  -72.53
 7.0784  0.374143E+03  0.641984E-04  0.716897E+03  0.712419E-04  0.623726E+02  0.149687E-11 -263.61   25.70   54.44   -4.31 -263.61   -6.03
 8.7730  0.328120E+03  0.793881E-04  0.508289E+03  0.178240E-04  0.522378E+02  0.183256E-11 -241.05   25.88 -267.11 -101.81 -241.06   57.60
10.4676  0.264266E+03  0.446477E-04  0.366704E+03  0.247986E-04  0.402511E+02  0.950915E-12 -202.52 -132.76 -219.13   11.04 -202.56  -45.68
12.1622  0.209382E+03  0.164119E-05  0.262995E+03  0.728253E-05  0.306162E+02  0.717014E-12 -150.73   69.44 -160.38 -187.08 -150.73 -102.30
13.8568  0.172786E+03  0.112459E-04  0.204572E+03  0.249834E-05  0.256542E+02  0.215683E-11  -92.76  -75.30  -96.65 -178.82  -93.68 -239.62
15.5513  0.135377E+03  0.273803E-04  0.197806E+03  0.333028E-05  0.187632E+02  0.141146E-11  -15.54   26.35  -32.04  -40.46  -15.73 -215.64
17.2459  0.112532E+03  0.706596E-05  0.126954E+03  0.430286E-05  0.162195E+02  0.452892E-11   63.66 -209.95   61.54   28.55   63.64  -72.87
18.9405  0.913418E+02  0.746897E-05  0.106315E+03  0.195837E-05  0.123797E+02  0.304380E-11 -201.92  -61.95 -208.55 -209.69 -202.08 -103.59
20.6351  0.759515E+02  0.625775E-05  0.827837E+02  0.910519E-06  0.103850E+02  0.100252E-11 -102.52   44.49 -105.01   27.82 -102.50   -3.61
22.3297  0.639157E+02  0.280215E-05  0.692213E+02  0.184145E-05  0.852907E+01  0.325496E-11    8.43   24.27    4.39   15.93    8.22  -97.14
24.0243  0.540769E+02  0.602416E-06  0.583526E+02  0.118178E-05  0.725021E+01  0.177588E-11 -234.58  -69.76 -232.55  -89.20 -234.58   85.24
25.7189  0.450334E+02  0.510017E-06  0.477187E+02  0.429802E-06  0.602749E+01  0.181925E-11 -108.89  -33.67 -110.32  -91.16 -108.92   74.91
27.4135  0.403763E+02  0.213879E-05  0.403988E+02  0.623113E-06  0.534542E+01  0.838235E-12   30.69 -179.31   25.54   -3.29   30.44 -120.20
29.1081  0.333668E+02  0.103063E-05  0.335948E+02  0.496869E-06  0.444119E+01  0.114002E-11 -188.83   14.82 -190.60 -187.37 -188.82  -71.88
30.8027  0.288064E+02  0.201338E-05  0.280980E+02  0.389775E-06  0.383429E+01  0.198717E-11  -36.34   84.13  -38.78 -109.61  -36.36  -49.75
32.4973  0.245030E+02  0.141465E-05  0.229305E+02  0.389674E-06  0.326090E+01  0.381501E-11 -235.96   19.96 -231.01  -95.60 -236.03 -253.53
34.1919  0.209566E+02  0.108253E-05  0.203721E+02  0.545674E-06  0.279120E+01  0.153721E-11  -66.03 -199.77  -70.10   24.37  -65.98   65.41
35.8865  0.178845E+02  0.208587E-05  0.159018E+02  0.222203E-06  0.238426E+01  0.110412E-12 -248.24  -70.13 -253.24  -98.78 -248.21 -186.03
37.5811  0.150074E+02  0.800183E-06  0.334741E+01  0.912156E-07  0.199703E+01  0.512958E-12  -62.39   80.16  -85.45   41.37  -62.43 -260.51
39.2757  0.122464E+02  0.297638E-06  0.160440E+02  0.134465E-06  0.162758E+01  0.160343E-11 -229.02  -61.67 -212.03 -260.40 -228.98  -42.36
40.9703  0.920356E+01  0.354896E-06  0.113794E+02  0.100517E-06  0.122707E+01  0.297670E-11  -28.90  -58.04  -18.68 -147.11  -28.86 -138.28
42.6649  0.303633E+01  0.162425E-06  0.843395E+01  0.289409E-07  0.399182E+00  0.170440E-11 -192.94 -252.70 -171.40 -172.34 -192.93   40.74
44.3595  0.128590E+02  0.549861E-06  0.412431E+01  0.754707E-08  0.173906E+01  0.128324E-11   66.45 -148.34   39.49   48.86   66.42  -59.22
46.0541  0.598550E+01  0.384458E-07  0.602044E+01  0.812638E-07  0.794659E+00  0.174709E-11  -82.23  -61.84   79.69   62.58  -82.22   79.91
47.7486  0.634962E+00  0.351711E-06  0.800877E+01  0.186078E-06  0.687867E-01  0.481868E-12 -236.50 -194.44 -193.25 -183.99 -240.62  -74.00
49.4432  0.124818E+02  0.157235E-06  0.470297E+00  0.348101E-07  0.169069E+01  0.608427E-12   77.69  -11.61 -149.46   48.93   77.70  -33.71
51.1378  0.114598E+01  0.247632E-06  0.184215E+02  0.161304E-06  0.146430E+00  0.618372E-12  -73.17 -157.49   14.44 -154.76  -73.26   63.90
52.8324  0.133271E+02  0.910758E-07  0.208945E+00  0.249592E-07  0.180795E+01  0.107384E-12  -69.10 -235.60   42.18   -3.13  -69.15  -39.82
54.5270  0.571469E-01  0.319138E-06  0.149551E+02  0.111265E-06  0.110428E-01  0.144678E-11  -18.74  -33.52 -166.65 -202.70  -41.95   82.38
56.2216  0.986619E+01  0.207913E-06  0.263895E+01  0.121330E-07  0.133488E+01  0.264016E-12 -269.97   -9.38 -165.30   18.30 -269.97  -66.89
57.9162  0.389834E+01  0.358657E-07  0.626963E+01  0.331292E-07  0.530282E+00  0.702476E-12 -251.69 -199.13   -4.65   46.33 -251.71 -231.10
59.6108  0.148876E+01  0.290210E-05  0.326456E+01  0.428955E-07  0.198296E+00  0.277897E-12  -89.98    2.20    9.95   22.18  -90.01  -89.93
61.3054  0.347049E+01  0.511687E-06  0.739476E+01  0.646156E-06  0.469277E+00  0.193858E-12  -46.69   74.43 -132.37    1.29  -46.49 -122.05
63.0000  0.167713E+02  0.796126E-06  0.958106E+01  0.119414E-06  0.227275E+01  0.347021E-12  -63.58 -213.03 -187.69   18.49  -63.58 -247.25
64.6946  0.126332E+01  0.994521E-06  0.148119E+02  0.605292E-06  0.172010E+00  0.607276E-12 -245.18   73.45   -0.41 -176.35 -245.29  -23.50
66.3892  0.624626E+01  0.105416E-04  0.455224E+02  0.445775E-06  0.848905E+00  0.588739E-13  -82.86   -6.78 -172.01 -182.87  -82.86 -118.62
68.0838  0.103742E+02  0.308852E-06  0.151800E+01  0.225684E-06  0.140270E+01  0.234797E-12 -266.98   59.63 -174.42 -206.80 -266.96   68.52
69.7784  0.524580E+01  0.119041E-05  0.182239E+01  0.232837E-06  0.710035E+00  0.134202E-11  -84.68   71.68 -173.49   -8.49  -84.67   89.55
71.4730  0.385696E+01  0.131312E-05  0.217513E+02  0.929774E-06  0.519416E+00  0.497710E-13 -268.62   37.96 -162.10   -8.20 -268.61 -110.09
73.1676  0.937345E+01  0.131253E-05  0.357376E+01  0.139703E-07  0.126740E+01  0.806204E-13 -269.38   88.32 -179.69 -114.46 -269.37 -150.42
74.8622  0.606204E+00  0.924237E-06  0.543981E+01  0.662318E-07  0.824103E-01  0.163950E-13   88.17 -171.05    5.44 -214.80   88.18   -4.34
76.5568  0.634992E+01  0.871927E-06  0.123446E+00  0.887130E-07  0.859430E+00  0.861539E-13  -90.11 -170.20 -183.56   -4.96  -90.11  -84.36
78.2514  0.780787E+01  0.327949E-06  0.526010E+01  0.898926E-07  0.105725E+01  0.174840E-12  -87.75 -222.09 -182.93 -181.55  -87.75  -85.40
79.9460  0.620741E+01  0.568340E-06  0.566145E+01  0.287810E-07  0.840675E+00  0.479402E-12  -87.36 -173.61 -180.04 -165.34  -87.36 -250.38
81.6405  0.311897E+01  0.198048E-06  0.346020E+01  0.282064E-06  0.422464E+00  0.491563E-13  -89.84   -4.29 -178.61    1.77  -89.84  -85.90
83.3351  0.342278E-01  0.270303E-06  0.298541E+01  0.152323E-06  0.480690E-02  0.631669E-13  -90.56   -8.69 -179.79    0.04  -90.54   46.14
85.0297  0.140306E+01  0.465398E-06  0.703084E+01  0.123430E-06  0.189576E+00  0.405156E-13   88.40    7.23 -182.61 -176.21   88.39  -83.21
86.7243  0.148711E+01  0.919804E-06  0.877495E+01  0.114578E-06  0.201883E+00  0.102221E-12  -93.63 -186.42 -183.13 -169.00  -93.62 -256.82
88.4189  0.379490E+01  0.472571E-06  0.145429E+01  0.945708E-07  0.513782E+00  0.120240E-12  -90.98 -185.81   -2.14 -191.20  -90.98  -86.72
90.1135  0.242718E+01  0.304651E-06  0.494356E+00  0.119389E-06  0.328497E+00  0.313124E-13  -91.05   25.73 -180.58 -176.41  -91.06    5.06
91.8081  0.123783E+01  0.116793E-05  0.466395E+01  0.127203E-07  0.167953E+00  0.396490E-14 -269.82 -178.87    0.22 -204.99 -269.82   32.86
93.5027  0.298956E+00  0.100562E-06  0.858385E+00  0.103055E-06  0.404819E-01  0.213939E-12 -269.90   -8.76   -0.08    1.65 -269.90 -269.57
95.1973  0.127435E-01  0.296318E-06  0.210037E+01  0.115568E-06  0.158400E-02  0.172884E-13 -268.77 -184.89 -180.14   -0.34 -268.65   64.75
96.8919  0.293992E+00  0.438617E-06  0.202053E+01  0.650975E-07  0.396917E-01  0.205814E-13   89.79    1.03 -180.35   -0.02   89.79 -105.08
98.5865  0.249505E+00  0.133237E-07  0.154372E+00  0.798227E-08  0.337783E-01  0.498398E-13  -90.46 -182.66 -180.44    8.51  -90.46  -94.19
*******  0.117695E+01  0.130533E-07  0.771797E+00  0.417531E-08  0.159499E+00  0.191610E-13   89.42   -7.09   -0.59 -192.31   89.42  -22.29
*******  0.701941E+00  0.141654E-06  0.124974E+01  0.130768E-07  0.950078E-01  0.547079E-14   89.61   -9.57 -180.40 -180.85   89.61 -121.08
*******  0.239787E+00  0.210122E-07  0.154889E-01  0.873464E-09  0.324407E-01  0.250143E-13  -90.70 -193.59 -181.48   -9.67  -90.70   88.69
*******  0.844982E+00  0.216114E-07  0.135853E+01  0.249957E-07  0.114435E+00  0.375452E-13   89.56  -45.44 -180.47 -181.93   89.56  -88.73
*******  0.778697E+00  0.612420E-08  0.101669E+00  0.548517E-08  0.105539E+00  0.199186E-13  -89.98 -237.28 -179.99   17.74  -89.98   81.56
*******  0.145514E+00  0.238474E-07  0.134361E+00  0.501091E-08  0.197214E-01  0.306758E-14   89.98   -2.78 -180.03   -0.94   89.98 -244.95
*******  0.152731E+00  0.802411E-07  0.368505E+00  0.266467E-08  0.206772E-01  0.210401E-14  -90.04   -1.21   -0.04 -182.00  -90.04 -263.47
*******  0.259298E+00  0.287914E-07  0.245951E+00  0.117599E-07  0.351463E-01  0.194616E-13   89.96    2.78   -0.04   -0.43   89.96  -82.22
*******  0.275807E+00  0.735618E-07  0.268977E+00  0.325951E-08  0.373958E-01  0.272372E-14  -90.04   -1.27 -180.04  -10.34  -90.04  -47.71
*******  0.431723E-01  0.181003E-08  0.670936E-01  0.614504E-09  0.584803E-02  0.571052E-14  -90.01  -60.77   -0.01 -201.87  -90.01   68.89
*******  0.938967E-02  0.178605E-07  0.162233E+00  0.189217E-08  0.128086E-02  0.156981E-14  -89.99 -182.41 -180.00 -176.39  -89.99  -61.33
*******  0.678160E-01  0.275015E-07  0.879706E-01  0.469011E-08  0.919578E-02  0.849549E-14  -90.00 -176.09 -180.00    0.21  -90.00   89.18
*******  0.154161E-01  0.823228E-08  0.104835E-01  0.255059E-08  0.208546E-02  0.170671E-15  -90.00   -3.00 -180.00 -179.59  -90.00 -196.16
*******  0.969381E-01  0.235844E-08  0.408543E-01  0.375472E-09  0.131437E-01  0.978864E-15  -90.00  -35.64 -180.00   81.87  -90.00 -265.96
*******  0.127428E+00  0.510351E-08  0.521319E-01  0.109233E-08  0.172768E-01  0.283908E-14   90.00  -14.75    0.00    3.20   90.00   85.58
*******  0.371844E-01  0.120612E-08  0.551423E-01  0.113512E-08  0.503870E-02  0.284330E-14  -90.00 -161.68    0.00   -1.51  -90.00   89.55
