 VARIABLES="Time (s)"
"AddedMass    1" "IRF    1"
"AddedMass    2" "IRF    2"
"AddedMass    3" "IRF    3"
"AddedMass    4" "IRF    4"
"AddedMass    5" "IRF    5"
"AddedMass    6" "IRF    6"
Zone t="DoF    1",I=   100,F=POINT
  0.0000000E+00 -0.1030056E+01  0.2696246E+03 -0.1056484E-07  0.3942150E-06 -0.8796320E-06 -0.7549757E-04 -0.2492210E-09  0.8783839E-07 -0.1358933E+00  0.3869720E+02  0.2685868E-14 -0.2413369E-13
  0.1000000E+00 -0.1030056E+01 -0.7070605E+02 -0.1056484E-07 -0.5595021E-07 -0.8796320E-06  0.1487880E-04 -0.2492210E-09 -0.5293523E-07 -0.1358933E+00 -0.8242342E+01  0.2685868E-14  0.2059927E-13
  0.2000000E+00 -0.1030056E+01 -0.9006606E+02 -0.1056484E-07  0.2566850E-06 -0.8796320E-06  0.4392458E-04 -0.2492210E-09 -0.4588075E-07 -0.1358933E+00 -0.1315199E+02  0.2685868E-14  0.3791534E-13
  0.3000000E+00 -0.1030056E+01 -0.5203935E+02 -0.1056484E-07 -0.1682034E-06 -0.8796320E-06  0.2164032E-04 -0.2492210E-09  0.4688210E-07 -0.1358933E+00 -0.8411280E+01  0.2685868E-14 -0.9469282E-14
  0.4000000E+00 -0.1030056E+01 -0.1851515E+02 -0.1056484E-07 -0.3741550E-06 -0.8796320E-06 -0.1629006E-04 -0.2492210E-09  0.4104374E-07 -0.1358933E+00 -0.3168072E+01  0.2685868E-14  0.4260709E-13
  0.5000000E+00 -0.1030056E+01  0.3328004E+00 -0.1056484E-07 -0.4593388E-06 -0.8796320E-06 -0.2102587E-04 -0.2492210E-09 -0.2481002E-07 -0.1358933E+00 -0.1416062E+00  0.2685868E-14 -0.1283531E-12
  0.6000000E+00 -0.1030056E+01 -0.1866053E+01 -0.1056484E-07  0.2539384E-06 -0.8796320E-06  0.2029303E-05 -0.2492210E-09 -0.6362849E-07 -0.1358933E+00 -0.1872916E+00  0.2685868E-14  0.1298142E-13
  0.7000000E+00 -0.1030056E+01 -0.1553490E+01 -0.1056484E-07  0.2925604E-06 -0.8796320E-06  0.1640219E-04 -0.2492210E-09 -0.7446403E-08 -0.1358933E+00  0.7071125E-01  0.2685868E-14  0.1611339E-12
  0.8000000E+00 -0.1030056E+01  0.5564509E-01 -0.1056484E-07 -0.3353737E-07 -0.8796320E-06 -0.1387637E-04 -0.2492210E-09  0.2976308E-07 -0.1358933E+00  0.3336925E+00  0.2685868E-14 -0.8630323E-13
  0.9000000E+00 -0.1030056E+01 -0.5280854E+00 -0.1056484E-07 -0.2587823E-06 -0.8796320E-06 -0.4525453E-04 -0.2492210E-09 -0.1453975E-07 -0.1358933E+00  0.1710718E+00  0.2685868E-14 -0.1409921E-13
  0.1000000E+01 -0.1030056E+01  0.2539025E+01 -0.1056484E-07  0.3538061E-06 -0.8796320E-06 -0.1678980E-04 -0.2492210E-09  0.2933419E-07 -0.1358933E+00  0.4392699E+00  0.2685868E-14  0.5567632E-13
  0.1100000E+01 -0.1030056E+01 -0.4184429E+01 -0.1056484E-07 -0.5777356E-06 -0.8796320E-06  0.2565615E-04 -0.2492210E-09 -0.6178050E-08 -0.1358933E+00 -0.6994724E+00  0.2685868E-14  0.6089669E-13
  0.1200000E+01 -0.1030056E+01 -0.1393851E+02 -0.1056484E-07 -0.7018268E-06 -0.8796320E-06 -0.1172577E-04 -0.2492210E-09 -0.3296583E-08 -0.1358933E+00 -0.2088067E+01  0.2685868E-14 -0.4009927E-13
  0.1300000E+01 -0.1030056E+01 -0.6993056E+01 -0.1056484E-07  0.3561527E-06 -0.8796320E-06 -0.4366707E-04 -0.2492210E-09 -0.4047149E-07 -0.1358933E+00 -0.9784956E+00  0.2685868E-14 -0.1378263E-13
  0.1400000E+01 -0.1030056E+01  0.6053458E+01 -0.1056484E-07  0.8704533E-07 -0.8796320E-06 -0.4001843E-04 -0.2492210E-09  0.1499945E-08 -0.1358933E+00  0.1030374E+01  0.2685868E-14 -0.1605956E-13
  0.1500000E+01 -0.1030056E+01  0.3707484E+01 -0.1056484E-07  0.3221348E-06 -0.8796320E-06 -0.4226475E-05 -0.2492210E-09  0.1705093E-07 -0.1358933E+00  0.5548419E+00  0.2685868E-14  0.2122124E-12
  0.1600000E+01 -0.1030056E+01 -0.9761050E+00 -0.1056484E-07  0.4509734E-06 -0.8796320E-06  0.4599541E-04 -0.2492210E-09  0.3435069E-07 -0.1358933E+00 -0.4837509E+00  0.2685868E-14  0.3987456E-14
  0.1700000E+01 -0.1030056E+01  0.3219577E+01 -0.1056484E-07 -0.2850795E-06 -0.8796320E-06 -0.2537447E-05 -0.2492210E-09 -0.4112255E-07 -0.1358933E+00  0.3384527E+00  0.2685868E-14  0.7660440E-14
  0.1800000E+01 -0.1030056E+01  0.5124794E+01 -0.1056484E-07 -0.1181201E-05 -0.8796320E-06 -0.5331622E-04 -0.2492210E-09  0.1856700E-07 -0.1358933E+00  0.1107685E+01  0.2685868E-14 -0.1380119E-13
  0.1900000E+01 -0.1030056E+01  0.6318817E+00 -0.1056484E-07 -0.5564352E-06 -0.8796320E-06 -0.1971204E-04 -0.2492210E-09 -0.3178723E-08 -0.1358933E+00  0.2211152E+00  0.2685868E-14 -0.4926572E-14
  0.2000000E+01 -0.1030056E+01 -0.2910568E+00 -0.1056484E-07  0.6415341E-06 -0.8796320E-06  0.4217950E-04 -0.2492210E-09 -0.1590478E-07 -0.1358933E+00 -0.4185596E+00  0.2685868E-14  0.3599082E-13
  0.2100000E+01 -0.1030056E+01  0.1763004E+01 -0.1056484E-07  0.6365128E-06 -0.8796320E-06  0.2100047E-04 -0.2492210E-09  0.4707339E-07 -0.1358933E+00  0.1082799E+00  0.2685868E-14  0.8344132E-13
  0.2200000E+01 -0.1030056E+01  0.5595645E+01 -0.1056484E-07 -0.6904506E-07 -0.8796320E-06 -0.5733926E-04 -0.2492210E-09 -0.2318386E-07 -0.1358933E+00  0.1007840E+01  0.2685868E-14  0.1297211E-12
  0.2300000E+01 -0.1030056E+01  0.7289038E+01 -0.1056484E-07 -0.9160186E-07 -0.8796320E-06 -0.4321098E-04 -0.2492210E-09 -0.2854893E-07 -0.1358933E+00  0.1063029E+01  0.2685868E-14 -0.1325762E-12
  0.2400000E+01 -0.1030056E+01 -0.2307881E+01 -0.1056484E-07 -0.2617102E-06 -0.8796320E-06 -0.1029611E-04 -0.2492210E-09 -0.2197423E-07 -0.1358933E+00 -0.4678228E+00  0.2685868E-14  0.4255747E-13
  0.2500000E+01 -0.1030056E+01 -0.1369318E+02 -0.1056484E-07 -0.7122717E-06 -0.8796320E-06  0.1570799E-04 -0.2492210E-09  0.1923300E-07 -0.1358933E+00 -0.1978425E+01  0.2685868E-14 -0.4825614E-13
  0.2600000E+01 -0.1030056E+01 -0.5366384E+01 -0.1056484E-07  0.1138662E-06 -0.8796320E-06  0.9737384E-05 -0.2492210E-09  0.2064263E-07 -0.1358933E+00 -0.6335458E+00  0.2685868E-14  0.1482313E-12
  0.2700000E+01 -0.1030056E+01  0.4754447E+01 -0.1056484E-07  0.3936444E-06 -0.8796320E-06 -0.3889105E-04 -0.2492210E-09  0.1662296E-07 -0.1358933E+00  0.9031043E+00  0.2685868E-14 -0.4118897E-13
  0.2800000E+01 -0.1030056E+01  0.2729452E+01 -0.1056484E-07 -0.1294099E-06 -0.8796320E-06 -0.2237695E-04 -0.2492210E-09 -0.3746704E-08 -0.1358933E+00  0.6122134E+00  0.2685868E-14 -0.3262284E-13
  0.2900000E+01 -0.1030056E+01  0.6309042E+00 -0.1056484E-07 -0.4766471E-07 -0.8796320E-06  0.7100896E-05 -0.2492210E-09  0.1077455E-07 -0.1358933E+00  0.2061853E+00  0.2685868E-14  0.5675326E-14
  0.3000000E+01 -0.1030056E+01 -0.4203773E+01 -0.1056484E-07  0.3659931E-06 -0.8796320E-06  0.1088964E-04 -0.2492210E-09 -0.6025272E-07 -0.1358933E+00 -0.6996746E+00  0.2685868E-14  0.1413498E-12
  0.3100000E+01 -0.1030056E+01 -0.1121605E+02 -0.1056484E-07 -0.2510357E-06 -0.8796320E-06 -0.1106508E-04 -0.2492210E-09 -0.2422046E-07 -0.1358933E+00 -0.1861965E+01  0.2685868E-14 -0.1164020E-12
  0.3200000E+01 -0.1030056E+01 -0.2187387E+02 -0.1056484E-07 -0.4539205E-06 -0.8796320E-06 -0.1068855E-04 -0.2492210E-09  0.3200331E-07 -0.1358933E+00 -0.3495783E+01  0.2685868E-14 -0.5823913E-13
  0.3300000E+01 -0.1030056E+01 -0.3949651E+02 -0.1056484E-07 -0.2345955E-06 -0.8796320E-06  0.3354805E-04 -0.2492210E-09  0.4718522E-07 -0.1358933E+00 -0.6122497E+01  0.2685868E-14  0.3862726E-13
  0.3400000E+01 -0.1030056E+01 -0.4831454E+02 -0.1056484E-07  0.4071964E-06 -0.8796320E-06  0.3868339E-04 -0.2492210E-09  0.7379256E-08 -0.1358933E+00 -0.7092531E+01  0.2685868E-14  0.3431773E-13
  0.3500000E+01 -0.1030056E+01 -0.2131087E+02 -0.1056484E-07  0.1037517E-06 -0.8796320E-06  0.1205364E-04 -0.2492210E-09 -0.1054925E-06 -0.1358933E+00 -0.1915093E+01  0.2685868E-14  0.3174892E-13
  0.3600000E+01 -0.1030056E+01  0.8988724E+02 -0.1056484E-07  0.7850909E-07 -0.8796320E-06 -0.3021353E-04 -0.2492210E-09  0.2917172E-07 -0.1358933E+00  0.1452929E+02  0.2685868E-14 -0.3159749E-13
  0.3700000E+01 -0.1030056E+01  0.1499545E+03 -0.1056484E-07  0.2265535E-06 -0.8796320E-06 -0.4258822E-04 -0.2492210E-09  0.5364426E-07 -0.1358933E+00  0.2139537E+02  0.2685868E-14 -0.1211686E-13
  0.3800000E+01 -0.1030056E+01 -0.2007176E+03 -0.1056484E-07 -0.1735067E-06 -0.8796320E-06  0.5603223E-04 -0.2492210E-09 -0.8879049E-07 -0.1358933E+00 -0.2816319E+02  0.2685868E-14  0.5336703E-13
  0.3900000E+01 -0.1030056E+01 -0.7922356E+02 -0.1056484E-07  0.1862573E-06 -0.8796320E-06  0.3789439E-04 -0.2492210E-09  0.5229823E-07 -0.1358933E+00 -0.1274925E+02  0.2685868E-14  0.8593779E-14
  0.4000000E+01 -0.1030056E+01 -0.6878824E+01 -0.1056484E-07 -0.6039147E-06 -0.8796320E-06 -0.1792034E-04 -0.2492210E-09  0.3798955E-07 -0.1358933E+00 -0.1764396E+01  0.2685868E-14 -0.4083118E-13
  0.4100000E+01 -0.1030056E+01  0.1620920E+02 -0.1056484E-07 -0.1314714E-06 -0.8796320E-06 -0.4895388E-04 -0.2492210E-09 -0.7641301E-08 -0.1358933E+00  0.2356421E+01  0.2685868E-14  0.2738256E-13
  0.4200000E+01 -0.1030056E+01  0.1987152E+02 -0.1056484E-07 -0.8685159E-07 -0.8796320E-06 -0.1107874E-04 -0.2492210E-09 -0.6343057E-07 -0.1358933E+00  0.3067032E+01  0.2685868E-14 -0.8734922E-13
  0.4300000E+01 -0.1030056E+01  0.3080350E+01 -0.1056484E-07  0.5128927E-06 -0.8796320E-06  0.1217010E-04 -0.2492210E-09 -0.4558545E-07 -0.1358933E+00  0.8331661E+00  0.2685868E-14  0.1341500E-12
  0.4400000E+01 -0.1030056E+01 -0.4512451E+01 -0.1056484E-07 -0.7870813E-07 -0.8796320E-06  0.3919779E-05 -0.2492210E-09  0.5369931E-07 -0.1358933E+00 -0.1975533E+00  0.2685868E-14  0.4493698E-13
  0.4500000E+01 -0.1030056E+01 -0.5173291E+01 -0.1056484E-07 -0.6247057E-07 -0.8796320E-06 -0.3011289E-04 -0.2492210E-09  0.1917309E-07 -0.1358933E+00 -0.5054643E+00  0.2685868E-14 -0.1101514E-12
  0.4600000E+01 -0.1030056E+01 -0.5565487E+01 -0.1056484E-07 -0.2793767E-06 -0.8796320E-06 -0.3510082E-04 -0.2492210E-09 -0.2067794E-07 -0.1358933E+00 -0.7619859E+00  0.2685868E-14  0.2503966E-13
  0.4700000E+01 -0.1030056E+01 -0.1414762E+01 -0.1056484E-07  0.9029976E-08 -0.8796320E-06  0.1273442E-04 -0.2492210E-09  0.1597983E-07 -0.1358933E+00 -0.3529195E+00  0.2685868E-14  0.9846086E-13
  0.4800000E+01 -0.1030056E+01  0.1515336E+00 -0.1056484E-07 -0.7860148E-06 -0.8796320E-06  0.1115896E-04 -0.2492210E-09 -0.3019657E-07 -0.1358933E+00 -0.2127526E+00  0.2685868E-14 -0.6627811E-13
  0.4900000E+01 -0.1030056E+01 -0.5942167E+01 -0.1056484E-07 -0.8057674E-07 -0.8796320E-06 -0.4057456E-04 -0.2492210E-09 -0.1814912E-07 -0.1358933E+00 -0.8919079E+00  0.2685868E-14  0.1545225E-13
  0.5000000E+01 -0.1030056E+01 -0.7829618E+01 -0.1056484E-07  0.6805536E-06 -0.8796320E-06 -0.4361325E-04 -0.2492210E-09 -0.2082007E-07 -0.1358933E+00 -0.9380381E+00  0.2685868E-14 -0.3325668E-13
  0.5100000E+01 -0.1030056E+01  0.1073035E+01 -0.1056484E-07  0.1088375E-06 -0.8796320E-06 -0.2024379E-05 -0.2492210E-09  0.3466089E-07 -0.1358933E+00  0.3041309E+00  0.2685868E-14  0.1309672E-12
  0.5200000E+01 -0.1030056E+01 -0.6581415E-01 -0.1056484E-07  0.3321097E-06 -0.8796320E-06  0.4764425E-04 -0.2492210E-09  0.3709460E-07 -0.1358933E+00 -0.1923632E+00  0.2685868E-14  0.1299609E-12
  0.5300000E+01 -0.1030056E+01 -0.1132220E+01 -0.1056484E-07 -0.2120857E-06 -0.8796320E-06  0.2445746E-04 -0.2492210E-09 -0.9786496E-08 -0.1358933E+00 -0.4094539E+00  0.2685868E-14 -0.7522995E-13
  0.5400000E+01 -0.1030056E+01  0.5277761E+01 -0.1056484E-07 -0.9432013E-06 -0.8796320E-06 -0.5120389E-04 -0.2492210E-09 -0.3497970E-07 -0.1358933E+00  0.9822100E+00  0.2685868E-14 -0.5896724E-14
  0.5500000E+01 -0.1030056E+01  0.5286503E+01 -0.1056484E-07 -0.7210361E-06 -0.8796320E-06 -0.4418940E-04 -0.2492210E-09  0.2774264E-07 -0.1358933E+00  0.1034344E+01  0.2685868E-14  0.6204091E-14
  0.5600000E+01 -0.1030056E+01 -0.4615874E+01 -0.1056484E-07  0.5670622E-06 -0.8796320E-06  0.2791637E-04 -0.2492210E-09 -0.2094564E-07 -0.1358933E+00 -0.8882672E+00  0.2685868E-14  0.2110683E-13
  0.5700000E+01 -0.1030056E+01 -0.1924639E+01 -0.1056484E-07  0.9478386E-06 -0.8796320E-06  0.4563771E-04 -0.2492210E-09  0.1902445E-07 -0.1358933E+00 -0.5772606E+00  0.2685868E-14  0.4484561E-13
  0.5800000E+01 -0.1030056E+01  0.5005621E+01 -0.1056484E-07  0.1552432E-06 -0.8796320E-06 -0.2589627E-04 -0.2492210E-09  0.1830271E-07 -0.1358933E+00  0.8926065E+00  0.2685868E-14  0.9269564E-13
  0.5900000E+01 -0.1030056E+01  0.4030459E+01 -0.1056484E-07 -0.4946500E-06 -0.8796320E-06 -0.6520378E-04 -0.2492210E-09 -0.4717463E-07 -0.1358933E+00  0.7675910E+00  0.2685868E-14 -0.4391727E-13
  0.6000000E+01 -0.1030056E+01  0.5194845E+01 -0.1056484E-07 -0.2217560E-06 -0.8796320E-06 -0.1069208E-04 -0.2492210E-09 -0.2900974E-07 -0.1358933E+00  0.5719125E+00  0.2685868E-14 -0.1196817E-12
  0.6100000E+01 -0.1030056E+01  0.4131980E+01 -0.1056484E-07 -0.6140603E-06 -0.8796320E-06  0.2448091E-04 -0.2492210E-09  0.1858496E-07 -0.1358933E+00  0.4266875E+00  0.2685868E-14  0.8789257E-13
  0.6200000E+01 -0.1030056E+01 -0.5890546E+01 -0.1056484E-07 -0.7565828E-07 -0.8796320E-06  0.1748579E-04 -0.2492210E-09  0.2655357E-07 -0.1358933E+00 -0.7324044E+00  0.2685868E-14 -0.2229853E-13
  0.6300000E+01 -0.1030056E+01 -0.4832458E+01 -0.1056484E-07  0.6788875E-06 -0.8796320E-06 -0.1942724E-04 -0.2492210E-09  0.2725895E-07 -0.1358933E+00 -0.4325572E+00  0.2685868E-14  0.1208068E-12
  0.6400000E+01 -0.1030056E+01  0.1672194E+01 -0.1056484E-07  0.5631567E-07 -0.8796320E-06 -0.3016318E-04 -0.2492210E-09 -0.1220933E-07 -0.1358933E+00  0.3932111E+00  0.2685868E-14 -0.1165744E-12
  0.6500000E+01 -0.1030056E+01  0.1234621E+01 -0.1056484E-07  0.3285928E-07 -0.8796320E-06  0.1660904E-04 -0.2492210E-09  0.7362976E-08 -0.1358933E+00  0.1670312E+00  0.2685868E-14 -0.1377162E-13
  0.6600000E+01 -0.1030056E+01 -0.2814282E+01 -0.1056484E-07 -0.1041393E-06 -0.8796320E-06  0.1516117E-04 -0.2492210E-09 -0.1752831E-07 -0.1358933E+00 -0.5827461E+00  0.2685868E-14  0.8650446E-13
  0.6700000E+01 -0.1030056E+01 -0.7369126E+01 -0.1056484E-07  0.1475096E-06 -0.8796320E-06 -0.5247872E-05 -0.2492210E-09 -0.6075076E-07 -0.1358933E+00 -0.1402460E+01  0.2685868E-14  0.6919249E-14
  0.6800000E+01 -0.1030056E+01 -0.1352659E+02 -0.1056484E-07 -0.5146015E-06 -0.8796320E-06 -0.1163352E-04 -0.2492210E-09  0.3853746E-07 -0.1358933E+00 -0.2216154E+01  0.2685868E-14 -0.1369486E-12
  0.6900000E+01 -0.1030056E+01 -0.2647432E+02 -0.1056484E-07 -0.1113304E-07 -0.8796320E-06  0.1515309E-04 -0.2492210E-09  0.5457573E-07 -0.1358933E+00 -0.3902388E+01  0.2685868E-14  0.6473815E-13
  0.7000000E+01 -0.1030056E+01 -0.2794568E+02 -0.1056484E-07  0.1186439E-06 -0.8796320E-06  0.6188578E-04 -0.2492210E-09  0.5481720E-08 -0.1358933E+00 -0.3901992E+01  0.2685868E-14  0.2602077E-14
  0.7100000E+01 -0.1030056E+01 -0.1964840E+01 -0.1056484E-07  0.6251502E-06 -0.8796320E-06  0.2150890E-04 -0.2492210E-09 -0.3746185E-07 -0.1358933E+00  0.4743164E+00  0.2685868E-14  0.5119585E-13
  0.7200000E+01 -0.1030056E+01  0.5749061E+02 -0.1056484E-07 -0.1901839E-06 -0.8796320E-06 -0.2618055E-04 -0.2492210E-09 -0.7823383E-07 -0.1358933E+00  0.9666630E+01  0.2685868E-14 -0.9001477E-14
  0.7300000E+01 -0.1030056E+01  0.1402106E+03 -0.1056484E-07  0.1213087E-06 -0.8796320E-06 -0.3851697E-04 -0.2492210E-09  0.8907337E-07 -0.1358933E+00  0.2010123E+02  0.2685868E-14 -0.6172581E-13
  0.7400000E+01 -0.1030056E+01 -0.1028156E+03 -0.1056484E-07 -0.1299692E-06 -0.8796320E-06  0.2684817E-04 -0.2492210E-09 -0.2184601E-07 -0.1358933E+00 -0.1503188E+02  0.2685868E-14  0.1307288E-13
  0.7500000E+01 -0.1030056E+01 -0.1668015E+03 -0.1056484E-07 -0.1448731E-06 -0.8796320E-06  0.5150173E-04 -0.2492210E-09 -0.5058122E-07 -0.1358933E+00 -0.2493891E+02  0.2685868E-14  0.4299179E-13
  0.7600000E+01 -0.1030056E+01  0.7029518E+01 -0.1056484E-07  0.5435373E-08 -0.8796320E-06 -0.2865692E-05 -0.2492210E-09  0.1073837E-06 -0.1358933E+00 -0.1741047E+00  0.2685868E-14 -0.2360345E-13
  0.7700000E+01 -0.1030056E+01  0.4496357E+02 -0.1056484E-07 -0.5320771E-06 -0.8796320E-06 -0.4566628E-04 -0.2492210E-09 -0.1523892E-07 -0.1358933E+00  0.6676372E+01  0.2685868E-14 -0.3135640E-13
  0.7800000E+01 -0.1030056E+01  0.3199447E+02 -0.1056484E-07  0.2790669E-06 -0.8796320E-06 -0.4145064E-04 -0.2492210E-09 -0.5206232E-07 -0.1358933E+00  0.5209956E+01  0.2685868E-14  0.9672041E-14
  0.7900000E+01 -0.1030056E+01  0.1979875E+02 -0.1056484E-07  0.2749245E-06 -0.8796320E-06  0.3791587E-05 -0.2492210E-09 -0.4640913E-07 -0.1358933E+00  0.3240705E+01  0.2685868E-14  0.2615178E-13
  0.8000000E+01 -0.1030056E+01 -0.6479501E+00 -0.1056484E-07  0.2643559E-06 -0.8796320E-06  0.6650369E-05 -0.2492210E-09  0.1076312E-07 -0.1358933E+00  0.2456705E+00  0.2685868E-14  0.1379184E-12
  0.8100000E+01 -0.1030056E+01 -0.9863626E+01 -0.1056484E-07 -0.4592369E-06 -0.8796320E-06 -0.1660210E-04 -0.2492210E-09  0.6979919E-07 -0.1358933E+00 -0.1207302E+01  0.2685868E-14 -0.1129097E-12
  0.8200000E+01 -0.1030056E+01 -0.9197955E+01 -0.1056484E-07 -0.6018139E-07 -0.8796320E-06 -0.2572987E-04 -0.2492210E-09 -0.1342780E-07 -0.1358933E+00 -0.1392559E+01  0.2685868E-14 -0.3890581E-13
  0.8300000E+01 -0.1030056E+01 -0.6538621E+01 -0.1056484E-07 -0.1437157E-06 -0.8796320E-06 -0.1624414E-05 -0.2492210E-09 -0.1617543E-07 -0.1358933E+00 -0.1144270E+01  0.2685868E-14  0.4460820E-13
  0.8400001E+01 -0.1030056E+01 -0.2372685E+01 -0.1056484E-07 -0.3246615E-06 -0.8796320E-06  0.2273298E-04 -0.2492210E-09 -0.1042916E-07 -0.1358933E+00 -0.5753356E+00  0.2685868E-14  0.6227087E-13
  0.8500000E+01 -0.1030056E+01  0.6260283E+01 -0.1056484E-07 -0.3316262E-06 -0.8796320E-06 -0.2060947E-04 -0.2492210E-09 -0.2889729E-07 -0.1358933E+00  0.7443241E+00  0.2685868E-14 -0.1281638E-12
  0.8600000E+01 -0.1030056E+01  0.5410412E+01 -0.1056484E-07  0.5639378E-06 -0.8796320E-06 -0.4101039E-04 -0.2492210E-09 -0.1323566E-07 -0.1358933E+00  0.8449804E+00  0.2685868E-14  0.8346217E-13
  0.8700000E+01 -0.1030056E+01 -0.5079861E+01 -0.1056484E-07  0.3840198E-06 -0.8796320E-06 -0.7154463E-05 -0.2492210E-09  0.1742278E-07 -0.1358933E+00 -0.5268987E+00  0.2685868E-14 -0.1444682E-13
  0.8800000E+01 -0.1030056E+01 -0.5507563E+01 -0.1056484E-07 -0.2709728E-07 -0.8796320E-06  0.3759432E-04 -0.2492210E-09  0.3870862E-07 -0.1358933E+00 -0.7730414E+00  0.2685868E-14  0.1810448E-12
  0.8900001E+01 -0.1030056E+01 -0.3233734E+01 -0.1056484E-07  0.2314114E-07 -0.8796320E-06  0.5583986E-04 -0.2492210E-09  0.2201504E-07 -0.1358933E+00 -0.6833537E+00  0.2685868E-14 -0.5460024E-13
  0.9000000E+01 -0.1030056E+01  0.5023267E+00 -0.1056484E-07 -0.6967615E-06 -0.8796320E-06 -0.2309382E-04 -0.2492210E-09 -0.4690318E-07 -0.1358933E+00  0.1292906E+00  0.2685868E-14 -0.7995189E-13
  0.9100000E+01 -0.1030056E+01  0.3182708E+01 -0.1056484E-07 -0.7158034E-06 -0.8796320E-06 -0.5997853E-04 -0.2492210E-09 -0.1555290E-09 -0.1358933E+00  0.8148410E+00  0.2685868E-14  0.5665829E-14
  0.9200000E+01 -0.1030056E+01  0.1405450E+01 -0.1056484E-07  0.3911945E-06 -0.8796320E-06 -0.7525738E-06 -0.2492210E-09  0.1639287E-07 -0.1358933E+00  0.1256861E+00  0.2685868E-14  0.3277987E-13
  0.9300000E+01 -0.1030056E+01 -0.6159979E+01 -0.1056484E-07  0.1135692E-05 -0.8796320E-06  0.4940374E-04 -0.2492210E-09 -0.2209335E-07 -0.1358933E+00 -0.1255088E+01  0.2685868E-14  0.3208926E-13
  0.9400001E+01 -0.1030056E+01 -0.7662470E+00 -0.1056484E-07  0.3281523E-06 -0.8796320E-06  0.9468347E-05 -0.2492210E-09  0.3639792E-07 -0.1358933E+00 -0.6513765E-01  0.2685868E-14  0.1336521E-13
  0.9500000E+01 -0.1030056E+01  0.5418524E+01 -0.1056484E-07 -0.5139111E-06 -0.8796320E-06 -0.4848587E-04 -0.2492210E-09 -0.2588865E-07 -0.1358933E+00  0.1106404E+01  0.2685868E-14  0.2718324E-13
  0.9600000E+01 -0.1030056E+01 -0.2106995E+00 -0.1056484E-07 -0.5088162E-06 -0.8796320E-06 -0.1968283E-04 -0.2492210E-09 -0.3050645E-07 -0.1358933E+00 -0.4539189E-01  0.2685868E-14 -0.1660128E-12
  0.9700000E+01 -0.1030056E+01  0.1810483E+01 -0.1056484E-07 -0.1316022E-06 -0.8796320E-06  0.2557129E-04 -0.2492210E-09 -0.3421115E-08 -0.1358933E+00  0.1687576E-01  0.2685868E-14  0.4913376E-14
  0.9800000E+01 -0.1030056E+01  0.8560653E+01 -0.1056484E-07 -0.4248349E-06 -0.8796320E-06  0.2986936E-04 -0.2492210E-09  0.4361673E-07 -0.1358933E+00  0.1175527E+01  0.2685868E-14  0.6626229E-13
  0.9900001E+01 -0.1030056E+01  0.4189463E+01 -0.1056484E-07  0.6467975E-06 -0.8796320E-06 -0.2680432E-05 -0.2492210E-09  0.8219073E-08 -0.1358933E+00  0.7557594E+00  0.2685868E-14  0.1547159E-14
Zone t="DoF    2",I=   100,F=POINT
  0.0000000E+00  0.2537487E-08 -0.1279432E-05 -0.1030059E+01  0.2696246E+03 -0.2351317E-06 -0.1765921E-04  0.1358932E+00 -0.3869719E+02 -0.3608184E-09  0.3427358E-07  0.1240964E-08 -0.3192997E-06
  0.1000000E+00  0.2537487E-08  0.3244401E-06 -0.1030059E+01 -0.7070602E+02 -0.2351317E-06  0.1933736E-04  0.1358932E+00  0.8242350E+01 -0.3608184E-09 -0.6074575E-08  0.1240964E-08  0.7760723E-07
  0.2000000E+00  0.2537487E-08  0.9532375E-06 -0.1030059E+01 -0.9006621E+02 -0.2351317E-06 -0.2618270E-04  0.1358932E+00  0.1315199E+02 -0.3608184E-09 -0.2709912E-07  0.1240964E-08  0.1123855E-06
  0.3000000E+00  0.2537487E-08 -0.6692860E-10 -0.1030059E+01 -0.5203939E+02 -0.2351317E-06  0.2427021E-04  0.1358932E+00  0.8411273E+01 -0.3608184E-09 -0.2933035E-07  0.1240964E-08  0.6552043E-07
  0.4000000E+00  0.2537487E-08 -0.6923968E-06 -0.1030059E+01 -0.1851509E+02 -0.2351317E-06  0.5372940E-05  0.1358932E+00  0.3168069E+01 -0.3608184E-09  0.1114654E-07  0.1240964E-08  0.2372233E-07
  0.5000000E+00  0.2537487E-08  0.7185745E-07 -0.1030059E+01  0.3328151E+00 -0.2351317E-06 -0.1066539E-04  0.1358932E+00  0.1416308E+00 -0.3608184E-09  0.5740008E-07  0.1240964E-08 -0.3629757E-09
  0.6000000E+00  0.2537487E-08 -0.9137595E-07 -0.1030059E+01 -0.1866077E+01 -0.2351317E-06 -0.2347905E-04  0.1358932E+00  0.1872951E+00 -0.3608184E-09  0.2197609E-07  0.1240964E-08  0.1294024E-08
  0.7000000E+00  0.2537487E-08  0.7511317E-08 -0.1030059E+01 -0.1553482E+01 -0.2351317E-06 -0.1940716E-04  0.1358932E+00 -0.7072710E-01 -0.3608184E-09 -0.2115736E-07  0.1240964E-08  0.5941679E-09
  0.8000000E+00  0.2537487E-08  0.5120808E-06 -0.1030059E+01  0.5570055E-01 -0.2351317E-06 -0.1124303E-04  0.1358932E+00 -0.3337074E+00 -0.3608184E-09 -0.1606498E-07  0.1240964E-08 -0.5260494E-09
  0.9000000E+00  0.2537487E-08  0.2966075E-06 -0.1030059E+01 -0.5280939E+00 -0.2351317E-06  0.3395440E-04  0.1358932E+00 -0.1710691E+00 -0.3608184E-09 -0.4180737E-07  0.1240964E-08  0.2113046E-08
  0.1000000E+01  0.2537487E-08 -0.4621496E-07 -0.1030059E+01  0.2539036E+01 -0.2351317E-06  0.4554932E-04  0.1358932E+00 -0.4392892E+00 -0.3608184E-09  0.2191345E-07  0.1240964E-08 -0.3087879E-08
  0.1100000E+01  0.2537487E-08 -0.1071864E-05 -0.1030059E+01 -0.4184445E+01 -0.2351317E-06 -0.3487749E-04  0.1358932E+00  0.6994715E+00 -0.3608184E-09 -0.2761559E-07  0.1240964E-08  0.4194616E-08
  0.1200000E+01  0.2537487E-08  0.3187436E-06 -0.1030059E+01 -0.1393845E+02 -0.2351317E-06 -0.5821383E-04  0.1358932E+00  0.2088072E+01 -0.3608184E-09  0.5026851E-07  0.1240964E-08  0.1606483E-07
  0.1300000E+01  0.2537487E-08  0.6257980E-06 -0.1030059E+01 -0.6993035E+01 -0.2351317E-06  0.2932941E-04  0.1358932E+00  0.9785045E+00 -0.3608184E-09  0.5012555E-07  0.1240964E-08  0.8713138E-08
  0.1400000E+01  0.2537487E-08  0.6938814E-07 -0.1030059E+01  0.6053388E+01 -0.2351317E-06  0.2300803E-04  0.1358932E+00 -0.1030361E+01 -0.3608184E-09 -0.6292500E-07  0.1240964E-08 -0.6534091E-08
  0.1500000E+01  0.2537487E-08 -0.1708447E-06 -0.1030059E+01  0.3707422E+01 -0.2351317E-06 -0.2647844E-05  0.1358932E+00 -0.5548510E+00 -0.3608184E-09 -0.3111040E-07  0.1240964E-08 -0.4652315E-08
  0.1600000E+01  0.2537487E-08 -0.6987885E-06 -0.1030059E+01 -0.9761084E+00 -0.2351317E-06 -0.2687164E-04  0.1358932E+00  0.4837398E+00 -0.3608184E-09 -0.4252690E-08  0.1240964E-08  0.8784434E-09
  0.1700000E+01  0.2537487E-08  0.8331784E-06 -0.1030059E+01  0.3219635E+01 -0.2351317E-06  0.3115451E-05  0.1358932E+00 -0.3384618E+00 -0.3608184E-09  0.1385363E-07  0.1240964E-08 -0.4409885E-08
  0.1800000E+01  0.2537487E-08 -0.3971874E-06 -0.1030059E+01  0.5124786E+01 -0.2351317E-06  0.1407244E-04  0.1358932E+00 -0.1107673E+01 -0.3608184E-09  0.7537484E-08  0.1240964E-08 -0.5028629E-08
  0.1900000E+01  0.2537487E-08 -0.4988526E-07 -0.1030059E+01  0.6318176E+00 -0.2351317E-06  0.6585586E-06  0.1358932E+00 -0.2211060E+00 -0.3608184E-09  0.1300157E-07  0.1240964E-08 -0.5731886E-09
  0.2000000E+01  0.2537487E-08  0.3881111E-06 -0.1030059E+01 -0.2911098E+00 -0.2351317E-06 -0.8071353E-05  0.1358932E+00  0.4185535E+00 -0.3608184E-09 -0.1041472E-07  0.1240964E-08 -0.1229938E-08
  0.2100000E+01  0.2537487E-08 -0.8065751E-06 -0.1030059E+01  0.1762917E+01 -0.2351317E-06 -0.1615458E-04  0.1358932E+00 -0.1082837E+00 -0.3608184E-09 -0.2021681E-07  0.1240964E-08 -0.2379809E-08
  0.2200000E+01  0.2537487E-08  0.1571512E-06 -0.1030059E+01  0.5595599E+01 -0.2351317E-06  0.1217138E-04  0.1358932E+00 -0.1007836E+01 -0.3608184E-09 -0.4391736E-07  0.1240964E-08 -0.5712240E-08
  0.2300000E+01  0.2537487E-08  0.5520533E-06 -0.1030059E+01  0.7289004E+01 -0.2351317E-06  0.2739990E-04  0.1358932E+00 -0.1063010E+01 -0.3608184E-09  0.1626720E-07  0.1240964E-08 -0.7295985E-08
  0.2400000E+01  0.2537487E-08  0.3038911E-06 -0.1030059E+01 -0.2307789E+01 -0.2351317E-06 -0.2470847E-04  0.1358932E+00  0.4678200E+00 -0.3608184E-09  0.6564510E-07  0.1240964E-08  0.1725564E-08
  0.2500000E+01  0.2537487E-08 -0.4755921E-06 -0.1030059E+01 -0.1369316E+02 -0.2351317E-06 -0.4413509E-04  0.1358932E+00  0.1978425E+01 -0.3608184E-09 -0.5202112E-08  0.1240964E-08  0.1557628E-07
  0.2600000E+01  0.2537487E-08 -0.8000280E-06 -0.1030059E+01 -0.5366406E+01 -0.2351317E-06  0.2233093E-04  0.1358932E+00  0.6335279E+00 -0.3608184E-09 -0.3675342E-07  0.1240964E-08  0.6194389E-08
  0.2700000E+01  0.2537487E-08  0.4832372E-06 -0.1030059E+01  0.4754467E+01 -0.2351317E-06  0.6380041E-04  0.1358932E+00 -0.9031093E+00 -0.3608184E-09  0.8352488E-08  0.1240964E-08 -0.5366385E-08
  0.2800000E+01  0.2537487E-08  0.5083197E-06 -0.1030059E+01  0.2729439E+01 -0.2351317E-06 -0.8304664E-05  0.1358932E+00 -0.6122120E+00 -0.3608184E-09 -0.5542851E-07  0.1240964E-08 -0.2723739E-08
  0.2900000E+01  0.2537487E-08  0.4253388E-06 -0.1030059E+01  0.6308872E+00 -0.2351317E-06 -0.3522533E-04  0.1358932E+00 -0.2061889E+00 -0.3608184E-09  0.5041842E-08  0.1240964E-08 -0.2057167E-08
  0.3000000E+01  0.2537487E-08 -0.5720810E-06 -0.1030059E+01 -0.4203835E+01 -0.2351317E-06 -0.1881784E-04  0.1358932E+00  0.6996784E+00 -0.3608184E-09  0.2370129E-07  0.1240964E-08  0.4155776E-08
  0.3100000E+01  0.2537487E-08  0.8762861E-07 -0.1030059E+01 -0.1121607E+02 -0.2351317E-06 -0.7529782E-05  0.1358932E+00  0.1861989E+01 -0.3608184E-09  0.2588174E-07  0.1240964E-08  0.1341508E-07
  0.3200000E+01  0.2537487E-08 -0.3614290E-06 -0.1030059E+01 -0.2187393E+02 -0.2351317E-06  0.1157163E-04  0.1358932E+00  0.3495805E+01 -0.3608184E-09  0.5788858E-07  0.1240964E-08  0.2795538E-07
  0.3300000E+01  0.2537487E-08 -0.3570090E-06 -0.1030059E+01 -0.3949655E+02 -0.2351317E-06  0.2334117E-04  0.1358932E+00  0.6122473E+01 -0.3608184E-09 -0.6354036E-07  0.1240964E-08  0.4878118E-07
  0.3400000E+01  0.2537487E-08  0.7539871E-06 -0.1030059E+01 -0.4831464E+02 -0.2351317E-06 -0.3262416E-05  0.1358932E+00  0.7092530E+01 -0.3608184E-09 -0.1257665E-07  0.1240964E-08  0.6045952E-07
  0.3500000E+01  0.2537487E-08  0.6080080E-06 -0.1030059E+01 -0.2131096E+02 -0.2351317E-06 -0.1587461E-04  0.1358932E+00  0.1915094E+01 -0.3608184E-09 -0.3438681E-07  0.1240964E-08  0.2535838E-07
  0.3600000E+01  0.2537487E-08 -0.6070005E-06 -0.1030059E+01  0.8988733E+02 -0.2351317E-06  0.1038683E-04  0.1358932E+00 -0.1452928E+02 -0.3608184E-09  0.4869150E-07  0.1240964E-08 -0.1161609E-06
  0.3700000E+01  0.2537487E-08 -0.7289416E-06 -0.1030059E+01  0.1499545E+03 -0.2351317E-06 -0.1099939E-04  0.1358932E+00 -0.2139537E+02 -0.3608184E-09  0.1682228E-07  0.1240964E-08 -0.1763524E-06
  0.3800000E+01  0.2537487E-08  0.1024805E-05 -0.1030059E+01 -0.2007176E+03 -0.2351317E-06  0.1506629E-04  0.1358932E+00  0.2816318E+02 -0.3608184E-09 -0.5550041E-07  0.1240964E-08  0.2405795E-06
  0.3900000E+01  0.2537487E-08  0.4505222E-06 -0.1030059E+01 -0.7922371E+02 -0.2351317E-06 -0.1842374E-04  0.1358932E+00  0.1274925E+02 -0.3608184E-09  0.7342158E-08  0.1240964E-08  0.1003822E-06
  0.4000000E+01  0.2537487E-08 -0.7479647E-06 -0.1030059E+01 -0.6878804E+01 -0.2351317E-06  0.3038052E-04  0.1358932E+00  0.1764390E+01 -0.3608184E-09 -0.1907419E-07  0.1240964E-08  0.9108051E-08
  0.4100000E+01  0.2537487E-08 -0.3777213E-06 -0.1030059E+01  0.1620931E+02 -0.2351317E-06 -0.2024862E-04  0.1358932E+00 -0.2356407E+01 -0.3608184E-09  0.7193712E-07  0.1240964E-08 -0.1927790E-07
  0.4200000E+01  0.2537487E-08  0.5106107E-06 -0.1030059E+01  0.1987157E+02 -0.2351317E-06 -0.2342702E-04  0.1358932E+00 -0.3067026E+01 -0.3608184E-09  0.3704533E-08  0.1240964E-08 -0.2547931E-07
  0.4300000E+01  0.2537487E-08 -0.1880586E-06 -0.1030059E+01  0.3080332E+01 -0.2351317E-06 -0.1764798E-04  0.1358932E+00 -0.8331864E+00 -0.3608184E-09 -0.1723629E-08  0.1240964E-08 -0.4533524E-08
  0.4400000E+01  0.2537487E-08  0.5414967E-06 -0.1030059E+01 -0.4512364E+01 -0.2351317E-06 -0.1012711E-05  0.1358932E+00  0.1975305E+00 -0.3608184E-09 -0.4762248E-07  0.1240964E-08  0.4944473E-08
  0.4500000E+01  0.2537487E-08  0.1061063E-06 -0.1030059E+01 -0.5173194E+01 -0.2351317E-06  0.1941330E-04  0.1358932E+00  0.5054480E+00 -0.3608184E-09 -0.1344041E-07  0.1240964E-08  0.6974575E-08
  0.4600000E+01  0.2537487E-08 -0.1585480E-06 -0.1030059E+01 -0.5565475E+01 -0.2351317E-06  0.4000878E-04  0.1358932E+00  0.7619854E+00 -0.3608184E-09  0.7600861E-08  0.1240964E-08  0.7887275E-08
  0.4700000E+01  0.2537487E-08 -0.4411272E-06 -0.1030059E+01 -0.1414746E+01 -0.2351317E-06 -0.1532913E-04  0.1358932E+00  0.3529000E+00 -0.3608184E-09  0.2022760E-07  0.1240964E-08  0.1237400E-08
  0.4800000E+01  0.2537487E-08 -0.4314357E-06 -0.1030059E+01  0.1515315E+00 -0.2351317E-06 -0.6147133E-04  0.1358932E+00  0.2127697E+00 -0.3608184E-09  0.3682163E-09  0.1240964E-08 -0.9058758E-09
  0.4900000E+01  0.2537487E-08  0.8749182E-06 -0.1030059E+01 -0.5942124E+01 -0.2351317E-06 -0.1960493E-04  0.1358932E+00  0.8919140E+00 -0.3608184E-09  0.5855495E-07  0.1240964E-08  0.7216676E-08
  0.5000000E+01  0.2537487E-08  0.3541299E-06 -0.1030059E+01 -0.7829688E+01 -0.2351317E-06  0.5989051E-04  0.1358932E+00  0.9380503E+00 -0.3608184E-09 -0.1303118E-07  0.1240964E-08  0.1059181E-07