VARIABLES="w (rad/s)"
"A   1   1" "B   1   1"
"A   1   2" "B   1   2"
"A   1   3" "B   1   3"
"A   1   4" "B   1   4"
"A   1   5" "B   1   5"
"A   1   6" "B   1   6"
Zone t="Motion of body    1 in DoF   1",I=    75,F=POINT
  0.3000000E+00  0.3281157E+01  0.1482216E-07 -0.3226584E-07  0.6403840E-15  0.1670560E-05  0.2483254E-08  0.3962365E-08  0.3628012E-16  0.5145831E+00  0.2752134E-08 -0.5319818E-15 -0.3101927E-23
  0.1994595E+01  0.3400304E+01  0.8088653E-02  0.3796669E-07  0.2350475E-10  0.5178177E-06 -0.4979847E-07 -0.1663414E-08  0.1023182E-10  0.5319220E+00  0.1511204E-02  0.4397264E-14 -0.7697835E-17
  0.3689189E+01  0.3744950E+01  0.5019277E+00  0.2898795E-07 -0.6893970E-09  0.9537426E-06  0.8328352E-06  0.3603278E-08  0.3842615E-09  0.5909395E+00  0.9119626E-01  0.2648268E-14  0.3608225E-15
  0.5383784E+01  0.4133892E+01  0.4590679E+01 -0.1743921E-07  0.2176967E-07  0.4663719E-06 -0.1561828E-05 -0.2324508E-09 -0.2008164E-08  0.6478227E+00  0.8009946E+00  0.4825457E-14  0.3330669E-15
  0.7078378E+01  0.3705954E+01  0.1327427E+02  0.5160124E-07  0.4525646E-08  0.4357694E-06  0.1814216E-05 -0.2742472E-08  0.3448804E-08  0.5621994E+00  0.2212580E+01  0.2509553E-15  0.9992007E-14
  0.8772973E+01  0.2779124E+01  0.1944773E+02 -0.4077136E-07  0.3287860E-06 -0.4112567E-06 -0.5953014E-05  0.2259178E-08 -0.9051291E-08  0.4049687E+00  0.3096311E+01  0.5264496E-14  0.1754152E-13
  0.1046757E+02  0.2071641E+01  0.2143765E+02 -0.1139956E-08 -0.2021698E-06 -0.1770546E-06 -0.7109717E-05 -0.3690955E-08 -0.2252636E-07  0.2944976E+00  0.3265187E+01  0.1187907E-14 -0.1953993E-13
  0.1216216E+02  0.1651577E+01  0.2108836E+02  0.1061527E-07  0.1239969E-06  0.7320611E-07  0.1503155E-05  0.5779052E-09  0.4700269E-08  0.2347293E+00  0.3083252E+01 -0.3103691E-15  0.1798561E-13
  0.1385676E+02  0.1341893E+01  0.2235765E+02  0.5124816E-09 -0.1390581E-06 -0.1112472E-05 -0.3512762E-04 -0.1713873E-08  0.3899913E-08  0.2009629E+00  0.3364455E+01 -0.1137724E-14 -0.4329870E-13
  0.1555135E+02  0.1292464E+01  0.1858342E+02  0.1828048E-07 -0.5333277E-07  0.4838864E-07  0.2220273E-05  0.2460978E-09  0.1941953E-07  0.1928224E+00  0.2580516E+01 -0.5996826E-15 -0.2720046E-13
  0.1724594E+02  0.1196313E+01  0.1839145E+02 -0.1144176E-07 -0.1409790E-06 -0.4639888E-06 -0.4826114E-05  0.4548017E-09  0.2574234E-07  0.1930671E+00  0.2652054E+01  0.1931277E-15  0.3286260E-13
  0.1894054E+02  0.1216058E+01  0.1543913E+02  0.3896790E-08  0.2166053E-06 -0.2733900E-06  0.3445894E-07 -0.5608551E-10  0.5809852E-08  0.1909948E+00  0.2087925E+01  0.2239140E-14  0.1032507E-13
  0.2063513E+02  0.1192343E+01  0.1432047E+02 -0.2195996E-08 -0.2349407E-07 -0.3668399E-06 -0.5374663E-05 -0.1551442E-10  0.1112858E-07  0.1921700E+00  0.1957575E+01 -0.1743203E-14  0.7327472E-14
  0.2232973E+02  0.1238137E+01  0.1251534E+02 -0.2843947E-08 -0.3899186E-07 -0.2183817E-06  0.1862645E-07  0.2932576E-09  0.2375600E-08  0.1982329E+00  0.1667243E+01  0.3579804E-14 -0.4346523E-13
  0.2402432E+02  0.1235197E+01  0.1146658E+02 -0.2943780E-08  0.1006520E-06  0.1946044E-06  0.9769574E-06  0.4470184E-09  0.1950684E-07  0.1995521E+00  0.1533556E+01  0.5785800E-14 -0.1743050E-13
  0.2571892E+02  0.1240024E+01  0.1065913E+02 -0.1620468E-08  0.1704393E-07 -0.2342165E-06 -0.4524365E-05  0.6416238E-09  0.8294592E-08  0.2015360E+00  0.1427974E+01 -0.1467697E-14  0.1165734E-13
  0.2741351E+02  0.1314977E+01  0.9203538E+01  0.1372090E-07  0.1394801E-07 -0.5582464E-06 -0.1517590E-05  0.8164167E-09  0.7608833E-08  0.2113370E+00  0.1221694E+01  0.8909806E-15 -0.1471046E-13
  0.2910810E+02  0.1300040E+01  0.8466297E+01 -0.3477490E-08  0.1123371E-06 -0.5828265E-06 -0.2395362E-05  0.1170828E-08 -0.3641617E-08  0.2102516E+00  0.1125968E+01 -0.4988892E-14  0.3508305E-13
  0.3080270E+02  0.1315324E+01  0.7838737E+01  0.3178464E-08  0.6209666E-07 -0.4474794E-06 -0.1807231E-05 -0.1133816E-10  0.7341441E-08  0.2126784E+00  0.1043949E+01  0.3171788E-15  0.5800915E-14
  0.3249730E+02  0.1328849E+01  0.6893846E+01  0.9815523E-08  0.1548324E-07 -0.1105070E-06 -0.1531094E-05  0.7791519E-10  0.2577508E-08  0.2144432E+00  0.9186926E+00  0.4236280E-15 -0.2262079E-13
  0.3419189E+02  0.1344888E+01  0.6421361E+01  0.2213097E-10 -0.5233778E-07 -0.6201573E-06 -0.1149019E-05 -0.1617263E-09 -0.3999958E-08  0.2156919E+00  0.8562768E+00 -0.2714522E-14  0.8576473E-14
  0.3588649E+02  0.1357659E+01  0.5641675E+01  0.7423865E-08 -0.4396861E-07 -0.4490717E-06  0.6777700E-06 -0.7444951E-09  0.1029548E-08  0.2166121E+00  0.7529417E+00  0.2833836E-14  0.2858824E-14
  0.3758108E+02  0.1365161E+01  0.4921311E+01 -0.4028573E-08  0.2894194E-07 -0.4890913E-06 -0.8819625E-06  0.9076292E-09 -0.3692548E-08  0.2169072E+00  0.6538814E+00  0.1158049E-14 -0.7563394E-14
  0.3927567E+02  0.1374978E+01  0.4289976E+01  0.5883653E-08 -0.1002536E-07 -0.4287212E-06 -0.1207925E-05  0.1190069E-08 -0.4445610E-08  0.2180483E+00  0.5704995E+00 -0.7688746E-15 -0.1033895E-13
  0.4097027E+02  0.1379994E+01  0.3467321E+01  0.8484595E-08 -0.3753212E-07 -0.2713252E-06 -0.1469452E-05  0.1889570E-09 -0.2640718E-08  0.2189292E+00  0.4626718E+00  0.3425220E-14  0.4017620E-14
  0.4266486E+02  0.1358569E+01  0.1285517E+01 -0.8818834E-08  0.6043592E-08 -0.4419895E-06 -0.3272668E-05 -0.4229329E-09  0.4092726E-11  0.2160204E+00  0.1693375E+00  0.2165027E-14  0.3143319E-14
  0.4435946E+02  0.1489844E+01  0.3589914E+01 -0.5563650E-09  0.4132016E-07 -0.7104675E-06 -0.5054753E-06 -0.1634978E-08  0.2394700E-08  0.2342107E+00  0.4863577E+00 -0.5406021E-14  0.5703771E-14
  0.4605405E+02  0.1433389E+01  0.2192906E+01 -0.2282601E-08  0.5211405E-09 -0.5927585E-06 -0.8279458E-06  0.1052828E-08  0.1159606E-10  0.2266964E+00  0.2915157E+00 -0.1369275E-14  0.4982126E-14
  0.4774865E+02  0.1416980E+01  0.2234931E+00 -0.5858721E-08  0.5259608E-08 -0.1064956E-05 -0.2356712E-05 -0.3559606E-09 -0.7598828E-09  0.2247574E+00  0.2239689E-01  0.2046123E-15  0.3080869E-14
  0.4944324E+02  0.1554847E+01  0.2010419E+01 -0.1422133E-08 -0.6971277E-08 -0.7751472E-06  0.1686625E-05  0.6180627E-09  0.1110948E-08  0.2437108E+00  0.2721826E+00 -0.2676576E-14  0.2220446E-15
  0.5113783E+02  0.1464384E+01  0.4434105E+00  0.1176040E-07 -0.1055150E-07 -0.1121277E-05  0.6009068E-06 -0.7944989E-09  0.8508323E-09  0.2316067E+00  0.5651418E-01  0.4828394E-14 -0.6973588E-15
  0.5283243E+02  0.1567248E+01 -0.3619066E+01 -0.5949402E-09  0.2970773E-07 -0.3765310E-06  0.3793510E-05 -0.3349293E-09  0.3900823E-08  0.2457758E+00 -0.4898203E+00 -0.4875258E-15 -0.1540434E-14
  0.5452702E+02  0.1490541E+01 -0.9183296E-01 -0.1688787E-08 -0.1175522E-08 -0.7793955E-06 -0.5010515E-06  0.5711132E-09  0.3678906E-09  0.2355089E+00 -0.1405038E-01  0.1775477E-14  0.1131040E-14
  0.5622162E+02  0.1573919E+01 -0.2269413E-01  0.1311964E-07 -0.5960032E-10 -0.7495423E-06 -0.1097145E-05 -0.1147140E-08  0.3385026E-10  0.2469684E+00 -0.3058800E-02  0.2717223E-14  0.1873501E-15
  0.5791621E+02  0.1511226E+01 -0.1346136E+01 -0.1263125E-07  0.1420358E-07 -0.7247810E-06 -0.1733890E-05 -0.1407045E-10  0.2019533E-08  0.2386167E+00 -0.1830194E+00  0.1042819E-14  0.4073131E-14
  0.5961081E+02  0.1508601E+01 -0.6044069E-03  0.5975945E-08 -0.6057235E-09 -0.1159130E-05 -0.7594354E-06  0.1122931E-09 -0.9572432E-10  0.2383628E+00 -0.1177060E-02 -0.5021172E-14  0.1214306E-15
  0.6130540E+02  0.1482369E+01 -0.3989697E+01  0.1621505E-07 -0.3710738E-08 -0.1000939E-05  0.4109461E-06  0.1352995E-08 -0.1620720E-08  0.2349414E+00 -0.5414222E+00 -0.5331499E-14 -0.2942091E-14
  0.6300000E+02  0.1604108E+01 -0.5362594E+01  0.2307610E-07 -0.4856338E-07 -0.9766173E-06 -0.5763955E-05  0.2016942E-08 -0.2144589E-08  0.2515775E+00 -0.7267299E+00 -0.7190016E-15  0.1429412E-13
  0.6469460E+02  0.1625173E+01 -0.4468650E+01 -0.1664140E-07  0.3265814E-07 -0.1476190E-05  0.7154653E-05 -0.8997298E-10 -0.3674359E-09  0.2545362E+00 -0.6059666E+00 -0.5038465E-14 -0.1110223E-13
  0.6638919E+02  0.1640680E+01 -0.1409843E+01 -0.1264645E-07  0.2303113E-07 -0.9182316E-06  0.6656162E-05  0.7434960E-09  0.5702532E-09  0.2567302E+00 -0.1915627E+00  0.5899856E-14  0.4329870E-14
  0.6808379E+02  0.1641548E+01 -0.7993869E+00 -0.3111987E-08 -0.1168701E-08 -0.4473601E-06  0.4254980E-07  0.3642051E-09  0.7430572E-09  0.2569103E+00 -0.1086292E+00  0.9366577E-14 -0.1172673E-14
  0.6977838E+02  0.1643484E+01 -0.1325927E+01 -0.1426613E-07 -0.9667929E-08 -0.8704291E-06 -0.2670567E-06 -0.6706799E-09  0.9072210E-09  0.2572564E+00 -0.1797959E+00 -0.4047682E-14 -0.6418477E-14
  0.7147298E+02  0.1646676E+01 -0.5753361E+00  0.2196277E-07 -0.1600256E-08 -0.6423473E-06  0.7500639E-06  0.1434974E-08  0.3763034E-09  0.2577692E+00 -0.7809095E-01  0.1267531E-14  0.6418477E-15
  0.7316756E+02  0.1639657E+01 -0.1979329E+00 -0.8782753E-09  0.1650733E-09 -0.6130107E-06 -0.2942863E-05 -0.1497205E-08  0.2090701E-09  0.2569016E+00 -0.2700862E-01 -0.4370027E-15  0.3070461E-15
  0.7486216E+02  0.1630217E+01  0.3529257E+00 -0.5588894E-08  0.4629328E-08 -0.9269664E-06  0.1294175E-05 -0.8288482E-09 -0.5009042E-09  0.2557050E+00  0.4762052E-01 -0.6525301E-14 -0.7520026E-15
  0.7655676E+02  0.1634699E+01  0.2816361E-01 -0.8710229E-08  0.4384599E-09 -0.1318894E-05 -0.5418487E-06 -0.2341786E-09  0.4677325E-10  0.2563775E+00  0.3762261E-02  0.7425003E-15 -0.9664307E-16
  0.7825135E+02  0.1641370E+01 -0.6130953E+00 -0.1260090E-07 -0.5756192E-08 -0.7293350E-06 -0.2335582E-06 -0.1532341E-09 -0.1568878E-10  0.2573435E+00 -0.8301793E-01  0.3836410E-14 -0.1915135E-14
  0.7994595E+02  0.1647695E+01 -0.7499292E+00 -0.1575582E-07  0.3316927E-08 -0.1144065E-05 -0.1728768E-07 -0.8649681E-09  0.5939000E-09  0.2582576E+00 -0.1015982E+00 -0.1910875E-14  0.8396062E-15
  0.8164054E+02  0.1643702E+01 -0.4562902E-01 -0.5230384E-08 -0.3770424E-09 -0.1221434E-05  0.3814712E-06 -0.6459553E-09 -0.5115908E-12  0.2577730E+00 -0.6233842E-02 -0.2023519E-14 -0.7155734E-16
  0.8333514E+02  0.1635974E+01  0.4505278E-01  0.1118401E-07 -0.9173107E-10 -0.7477837E-06 -0.5944621E-06  0.8255996E-09  0.4672529E-10  0.2567677E+00  0.6058124E-02  0.2813688E-14  0.1208885E-15
  0.8502972E+02  0.1643073E+01  0.5461021E+00 -0.1549836E-07 -0.2261231E-08 -0.7901865E-06 -0.8452043E-06  0.1872947E-08  0.2678462E-09  0.2577778E+00  0.7402811E-01  0.9818775E-15  0.2824130E-14
  0.8672433E+02  0.1633514E+01  0.8765822E+00 -0.4000235E-09 -0.7556537E-08 -0.7769798E-06 -0.7692724E-06 -0.2251139E-08  0.6239134E-09  0.2565289E+00  0.1187680E+00  0.4055594E-14  0.1068590E-14
  0.8841892E+02  0.1638059E+01  0.2940353E+00  0.1408798E-08  0.1468720E-08 -0.1211556E-05 -0.6681512E-06  0.8702948E-09  0.2911520E-09  0.2571889E+00  0.3988904E-01  0.2169745E-14 -0.3243933E-15
  0.9011351E+02  0.1641132E+01  0.3353864E+00  0.2875712E-08  0.1892658E-08 -0.1078643E-05 -0.1184817E-06 -0.4909122E-09  0.1497256E-09  0.2576464E+00  0.4545693E-01  0.2109231E-14 -0.6401130E-15
  0.9180811E+02  0.1651197E+01 -0.5196472E-01 -0.6624182E-08 -0.2652030E-09 -0.8274445E-06  0.5735637E-06 -0.1619273E-08  0.4996537E-10  0.2590497E+00 -0.7041660E-02 -0.2766847E-14 -0.6114900E-16
  0.9350270E+02  0.1649144E+01 -0.3247913E-01 -0.2574759E-08 -0.1579821E-09 -0.1230306E-05 -0.1752014E-06 -0.1558800E-08  0.2464162E-10  0.2588082E+00 -0.4406323E-02  0.1139875E-14  0.1647987E-15
  0.9519730E+02  0.1648075E+01  0.9180427E-01 -0.1550373E-07 -0.1216449E-09 -0.1048120E-05  0.5328911E-07  0.1222885E-11 -0.1453202E-09  0.2586985E+00  0.1244634E-01 -0.2220509E-14  0.4557986E-15
  0.9689189E+02  0.1645488E+01  0.8988463E-01 -0.5981052E-08  0.4885692E-09 -0.1172507E-05 -0.2125525E-06  0.1549931E-09  0.2081038E-09  0.2583812E+00  0.1218685E-01 -0.7333356E-15  0.5854692E-16
  0.9858649E+02  0.1644477E+01  0.1594948E+00  0.5285461E-08  0.1680064E-08 -0.9836720E-06 -0.7556810E-07 -0.2147956E-08  0.3490186E-10  0.2582747E+00  0.2162097E-01 -0.2198228E-14  0.5958775E-15
  0.1002811E+03  0.1644981E+01  0.1948209E+00 -0.7685092E-08 -0.2503157E-08 -0.1092165E-05 -0.4378817E-06  0.8381626E-09 -0.1742819E-09  0.2583729E+00  0.2641477E-01 -0.2462215E-14 -0.1217776E-14
  0.1019757E+03  0.1646176E+01  0.1453324E+00 -0.1513988E-07  0.2733032E-09 -0.1183902E-05 -0.6274058E-07  0.7077912E-10 -0.3865352E-11  0.2585631E+00  0.1970275E-01 -0.6619377E-15  0.3608225E-15
  0.1036703E+03  0.1650823E+01  0.2784543E+00 -0.1288459E-07  0.2997922E-09 -0.1069684E-05 -0.1080334E-06  0.3031932E-09 -0.1136868E-12  0.2592206E+00  0.3776109E-01 -0.9424071E-15  0.1301043E-16
  0.1053649E+03  0.1654205E+01  0.1682598E+00  0.1809790E-08 -0.2454613E-08 -0.1066057E-05  0.5966285E-09 -0.2105897E-08  0.1155058E-09  0.2597048E+00  0.2281481E-01 -0.3709001E-15 -0.5689893E-15
  0.1070595E+03  0.1658252E+01 -0.8969751E-02 -0.7372497E-09  0.1003429E-09 -0.9236369E-06  0.4604772E-08 -0.1266808E-08 -0.7446488E-11  0.2602775E+00 -0.1216043E-02  0.4828341E-14 -0.4591596E-16
  0.1087541E+03  0.1657972E+01  0.6998906E-02  0.1794066E-08  0.6096457E-10 -0.1030094E-05 -0.2129036E-07 -0.2408502E-09 -0.5664802E-11  0.2602630E+00  0.9493474E-03  0.8003513E-15 -0.3198396E-17
  0.1104486E+03  0.1657889E+01  0.1670887E-01 -0.7884089E-08  0.4946799E-10 -0.1234201E-05 -0.1137050E-07  0.4490136E-09  0.3124967E-10  0.2602740E+00  0.2265762E-02 -0.6111581E-14  0.2856873E-16
  0.1121432E+03  0.1658392E+01  0.1733038E-01  0.2501394E-07 -0.1465068E-09 -0.1280129E-05 -0.3328387E-07 -0.3083143E-09  0.5812240E-11  0.2603628E+00  0.2350233E-02  0.4086740E-14 -0.4336809E-16
  0.1138378E+03  0.1659615E+01  0.1491737E-01  0.1260713E-07 -0.5054801E-10 -0.1491454E-05 -0.2589513E-07  0.2139367E-08  0.4732215E-11  0.2605489E+00  0.2022938E-02 -0.5352268E-14 -0.7714098E-16
  0.1155324E+03  0.1661962E+01  0.5230441E-02 -0.3004990E-07 -0.7553069E-11 -0.1384968E-05  0.2295337E-08  0.3274837E-09 -0.3463896E-11  0.2608873E+00  0.7093936E-03  0.2413938E-14  0.2490954E-16
  0.1172270E+03  0.1650841E+01  0.0000000E+00  0.2335715E-08  0.0000000E+00 -0.1097754E-05  0.0000000E+00  0.5104411E-09  0.0000000E+00  0.2593975E+00  0.0000000E+00 -0.2303277E-14  0.0000000E+00
  0.1189216E+03  0.1651967E+01  0.0000000E+00  0.2136014E-08  0.0000000E+00 -0.1154536E-05  0.0000000E+00  0.1221698E-08  0.0000000E+00  0.2595674E+00  0.0000000E+00 -0.4481163E-16  0.0000000E+00
  0.1206162E+03  0.1653044E+01  0.0000000E+00  0.7707859E-08  0.0000000E+00 -0.1304850E-05  0.0000000E+00 -0.2087666E-08  0.0000000E+00  0.2597305E+00  0.0000000E+00  0.4197294E-14  0.0000000E+00
  0.1223108E+03  0.1654076E+01  0.0000000E+00  0.2693592E-07  0.0000000E+00 -0.1145205E-05  0.0000000E+00 -0.2960096E-09  0.0000000E+00  0.2598870E+00  0.0000000E+00  0.2280159E-14  0.0000000E+00
  0.1240054E+03  0.1655066E+01  0.0000000E+00  0.8779586E-08  0.0000000E+00 -0.1041354E-05  0.0000000E+00  0.2797601E-09  0.0000000E+00  0.2600366E+00  0.0000000E+00  0.1647356E-14  0.0000000E+00
  0.1257000E+03  0.1656018E+01  0.0000000E+00  0.4075000E-09  0.0000000E+00 -0.1272230E-05  0.0000000E+00  0.3963863E-09  0.0000000E+00  0.2601804E+00  0.0000000E+00 -0.3108978E-15  0.0000000E+00
Zone t="Motion of body    1 in DoF   2",I=    75,F=POINT
  0.3000000E+00 -0.3750150E-08 -0.1467332E-15  0.3281154E+01  0.1450195E-07  0.8603456E-06 -0.1001044E-13 -0.5145826E+00 -0.2587592E-08 -0.3553092E-08  0.1093689E-16 -0.4175627E-08 -0.2113835E-16
  0.1994595E+01 -0.2517007E-08  0.8141399E-10  0.3400301E+01  0.8088660E-02  0.1010013E-06  0.9556402E-08 -0.5319209E+00 -0.1511214E-02  0.2777828E-08  0.3275602E-11 -0.4326847E-08 -0.9956706E-11
  0.3689189E+01  0.4170494E-07 -0.1972694E-08  0.3744948E+01  0.5019268E+00  0.1475013E-05 -0.3620517E-07 -0.5909394E+00 -0.9119629E-01  0.4989761E-09  0.1318767E-09 -0.4752105E-08 -0.6196988E-09
  0.5383784E+01  0.2470465E-08  0.4823960E-08  0.4133892E+01  0.4590677E+01 -0.1804878E-05  0.1581211E-05 -0.6478226E+00 -0.8009948E+00  0.3624610E-08 -0.7239578E-09 -0.5239376E-08 -0.5689996E-08
  0.7078378E+01 -0.2373246E-07  0.3464811E-07  0.3705954E+01  0.1327427E+02  0.1413306E-05  0.4793925E-05 -0.5621989E+00 -0.2212584E+01 -0.1064918E-08 -0.9153155E-08 -0.4711362E-08 -0.1650835E-07
  0.8772973E+01  0.1071534E-07  0.1184671E-06  0.2779126E+01  0.1944772E+02  0.3551654E-06 -0.2135348E-05 -0.4049689E+00 -0.3096311E+01  0.9222489E-09 -0.1078297E-07 -0.3554984E-08 -0.2423835E-07
  0.1046757E+02  0.3184092E-07 -0.2268644E-07  0.2071640E+01  0.2143768E+02 -0.2161412E-05 -0.1606537E-04 -0.2944974E+00 -0.3265181E+01 -0.9717430E-09  0.2725574E-07 -0.2668667E-08 -0.2671591E-07
  0.1216216E+02  0.5099445E-08 -0.4083267E-06  0.1651576E+01  0.2108836E+02  0.8838766E-06 -0.2800953E-05 -0.2347292E+00 -0.3083251E+01 -0.1782772E-09  0.6737537E-08 -0.2145688E-08 -0.2628709E-07
  0.1385676E+02  0.1207272E-07 -0.3114110E-08  0.1341893E+01  0.2235767E+02  0.2339689E-06  0.2155843E-04 -0.2009628E+00 -0.3364447E+01 -0.8086288E-10  0.1027365E-07 -0.1708148E-08 -0.2663133E-07
  0.1555135E+02 -0.1927049E-07 -0.1057779E-06  0.1292465E+01  0.1858345E+02 -0.2852676E-06 -0.1038430E-04 -0.1928225E+00 -0.2580516E+01  0.6269413E-09  0.1239823E-07 -0.1685702E-08 -0.2283872E-07
  0.1724594E+02 -0.1062666E-07 -0.3919122E-06  0.1196313E+01  0.1839145E+02  0.2927404E-06 -0.1564971E-05 -0.1930670E+00 -0.2652057E+01 -0.2615743E-10 -0.1274748E-07 -0.1556523E-08 -0.2223747E-07
  0.1894054E+02  0.1216518E-07 -0.8521602E-07  0.1216058E+01  0.1543913E+02 -0.7869058E-06  0.1241782E-04 -0.1909947E+00 -0.2087929E+01 -0.3995132E-09  0.7556082E-08 -0.1599458E-08 -0.1852357E-07
  0.2063513E+02  0.5338372E-08 -0.1548033E-06  0.1192342E+01  0.1432047E+02  0.2974256E-07 -0.8447096E-06 -0.1921698E+00 -0.1957575E+01  0.2073291E-08  0.4285539E-08 -0.1568738E-08 -0.1701707E-07
  0.2232973E+02 -0.1887275E-08  0.1129229E-07  0.1238137E+01  0.1251534E+02  0.7014147E-06 -0.4434027E-05 -0.1982332E+00 -0.1667241E+01  0.1107862E-09 -0.1068838E-07 -0.1635701E-08 -0.1474190E-07
  0.2402432E+02  0.7857348E-08 -0.3499008E-07  0.1235198E+01  0.1146658E+02 -0.1290529E-05  0.2577290E-06 -0.1995517E+00 -0.1533556E+01 -0.1250198E-08  0.9851647E-08 -0.1636506E-08 -0.1335478E-07
  0.2571892E+02 -0.9360692E-08  0.1832013E-06  0.1240024E+01  0.1065914E+02 -0.2521683E-06 -0.4218746E-05 -0.2015359E+00 -0.1427974E+01  0.1273063E-08  0.1250737E-07 -0.1652422E-08 -0.1242157E-07
  0.2741351E+02 -0.1116230E-07 -0.1535700E-06  0.1314976E+01  0.9203526E+01  0.4170541E-06 -0.3450827E-05 -0.2113373E+00 -0.1221689E+01 -0.9639874E-09  0.3250534E-08 -0.1732298E-08 -0.1023851E-07
  0.2910810E+02  0.3091546E-08 -0.5201582E-07  0.1300040E+01  0.8466291E+01  0.6576795E-06 -0.3592955E-05 -0.2102514E+00 -0.1125969E+01 -0.6978976E-09  0.8139978E-08 -0.1728871E-08 -0.9499924E-08
  0.3080270E+02 -0.5366729E-08 -0.7036942E-07  0.1315323E+01  0.7838739E+01 -0.5041173E-06 -0.6900838E-05 -0.2126780E+00 -0.1043951E+01  0.5905292E-09  0.2059096E-08 -0.1754163E-08 -0.8843468E-08
  0.3249730E+02  0.2480748E-08  0.5162838E-07  0.1328848E+01  0.6893840E+01  0.4656427E-06 -0.9561700E-06 -0.2144433E+00 -0.9186920E+00 -0.7818386E-09  0.2482921E-08 -0.1775878E-08 -0.7728588E-08
  0.3419189E+02  0.2008811E-09 -0.1278750E-07  0.1344888E+01  0.6421361E+01 -0.5177488E-06 -0.7963681E-06 -0.2156921E+00 -0.8562773E+00 -0.8086315E-09 -0.1217086E-07 -0.1800863E-08 -0.7263008E-08
  0.3588649E+02 -0.5620208E-08 -0.3381683E-07  0.1357658E+01  0.5641669E+01 -0.3129968E-05 -0.3657893E-05 -0.2166122E+00 -0.7529435E+00 -0.1450062E-08 -0.9687028E-08 -0.1818827E-08 -0.6304837E-08
  0.3758108E+02 -0.1958063E-07  0.3088280E-07  0.1365162E+01  0.4921307E+01  0.2675654E-05  0.3298301E-05 -0.2169070E+00 -0.6538829E+00  0.5684299E-09 -0.7630661E-09 -0.1829625E-08 -0.5473247E-08
  0.3927567E+02  0.1339457E-07 -0.1145272E-06  0.1374976E+01  0.4289972E+01  0.1940781E-05 -0.1532790E-06 -0.2180481E+00 -0.5704994E+00  0.1065579E-08 -0.1728040E-10 -0.1842751E-08 -0.4755735E-08
  0.4097027E+02  0.6140392E-08  0.2232719E-07  0.1379992E+01  0.3467318E+01  0.5024551E-06  0.1533099E-06 -0.2189293E+00 -0.4626718E+00 -0.8794314E-09 -0.3542482E-09 -0.1849799E-08 -0.3737818E-08
  0.4266486E+02 -0.2279199E-07  0.2297838E-08  0.1358568E+01  0.1285517E+01  0.8445125E-06 -0.8406096E-07 -0.2160198E+00 -0.1693378E+00 -0.5375341E-09 -0.1056833E-08 -0.1824644E-08 -0.1016075E-08
  0.4435946E+02  0.5933685E-08 -0.3074092E-09  0.1489844E+01  0.3589928E+01 -0.1478409E-05  0.1137811E-05 -0.2342109E+00 -0.4863592E+00  0.4723853E-10 -0.4042704E-08 -0.1979102E-08 -0.4137887E-08
  0.4605405E+02 -0.3549028E-08 -0.3019477E-07  0.1433387E+01  0.2192912E+01 -0.1828255E-06 -0.7731078E-06 -0.2266963E+00 -0.2915161E+00  0.6938805E-09  0.8071765E-10 -0.1911702E-08 -0.2348196E-08
  0.4774865E+02 -0.6495061E-08 -0.1703484E-08  0.1416979E+01  0.2235038E+00 -0.2843003E-06 -0.9060022E-07 -0.2247573E+00 -0.2239833E-01 -0.9593869E-09 -0.1164153E-08 -0.1892461E-08 -0.4776668E-10
  0.4944324E+02 -0.9185000E-08  0.1282115E-07  0.1554847E+01  0.2010408E+01  0.1203746E-05 -0.2327215E-07 -0.2437109E+00 -0.2721816E+00  0.5721494E-09 -0.1594344E-08 -0.2052815E-08 -0.2320949E-08
  0.5113783E+02  0.1448310E-07  0.5479706E-09  0.1464382E+01  0.4434178E+00  0.5715839E-06 -0.2084289E-06 -0.2316068E+00 -0.5651522E-01  0.5087980E-09 -0.8458301E-10 -0.1948577E-08 -0.3535862E-09
  0.5283243E+02 -0.6438575E-08 -0.3142486E-07  0.1567248E+01 -0.3619075E+01  0.1101062E-05  0.1517292E-05 -0.2457757E+00  0.4898214E+00 -0.1663629E-09  0.9913492E-10 -0.2069124E-08  0.4222361E-08
  0.5452702E+02  0.7784219E-08  0.4333742E-09  0.1490541E+01 -0.9182500E-01 -0.1772880E-05  0.1329663E-06 -0.2355086E+00  0.1404941E-01  0.6042057E-09  0.1150511E-09 -0.1979403E-08  0.2333685E-09
  0.5622162E+02 -0.6708908E-08  0.5090328E-10  0.1573917E+01 -0.2271787E-01 -0.8178656E-06  0.2414026E-08 -0.2469681E+00  0.3061996E-02  0.1421502E-08 -0.6062351E-10 -0.2076060E-08  0.7307753E-11
  0.5791621E+02 -0.1468955E-07  0.9809810E-08  0.1511224E+01 -0.1346127E+01 -0.1248266E-05  0.7636954E-06 -0.2386161E+00  0.1830193E+00 -0.3618116E-09 -0.1232820E-08 -0.2003734E-08  0.1617436E-08
  0.5961081E+02  0.7483601E-08  0.1346052E-09  0.1508600E+01 -0.6003486E-03  0.1134086E-05 -0.8907591E-08 -0.2383623E+00  0.1176586E-02 -0.8719802E-09 -0.1796252E-10 -0.1999501E-08  0.1276435E-09
  0.6130540E+02  0.1460855E-07  0.1282388E-07  0.1482367E+01 -0.3989677E+01  0.1790040E-05 -0.1548040E-05 -0.2349411E+00  0.5414196E+00 -0.1006439E-09  0.1138687E-08 -0.1968635E-08  0.4933380E-08
  0.6300000E+02  0.2337915E-07  0.1236913E-07  0.1604105E+01 -0.5362604E+01 -0.3523873E-06 -0.1338020E-05 -0.2515768E+00  0.7267297E+00  0.7437645E-09 -0.1095032E-08 -0.2116131E-08  0.6512010E-08
  0.6469460E+02 -0.1203659E-07  0.1111039E-07  0.1625171E+01 -0.4468669E+01  0.5479930E-06  0.1138367E-05 -0.2545363E+00  0.6059695E+00 -0.1606917E-08  0.5111360E-09 -0.2142300E-08  0.5430263E-08
  0.6638919E+02 -0.1636042E-07 -0.4965841E-08  0.1640679E+01 -0.1409869E+01  0.5785241E-06  0.6355185E-06 -0.2567301E+00  0.1915659E+00 -0.4033115E-10 -0.1451554E-08 -0.2159904E-08  0.1749693E-08
  0.6808379E+02  0.1324646E-07  0.3174591E-08  0.1641547E+01 -0.7993923E+00  0.7328148E-06  0.8829193E-07 -0.2569098E+00  0.1086301E+00  0.2082637E-08 -0.6275513E-10 -0.2160588E-08  0.1020930E-08
  0.6977838E+02  0.1123139E-07 -0.1495209E-08  0.1643483E+01 -0.1325900E+01  0.7620926E-06 -0.1263397E-06 -0.2572561E+00  0.1797919E+00  0.1241258E-08  0.7594281E-10 -0.2162708E-08  0.1630979E-08
  0.7147298E+02  0.8205904E-08  0.4491085E-08  0.1646674E+01 -0.5753410E+00 -0.6191402E-07  0.7115887E-08 -0.2577689E+00  0.7809167E-01 -0.3599652E-09  0.4959020E-09 -0.2166215E-08  0.7136857E-09
  0.7316756E+02 -0.6787541E-08 -0.8187726E-09  0.1639656E+01 -0.1979294E+00 -0.3440994E-06  0.1990156E-07 -0.2569009E+00  0.2700816E-01  0.1385829E-08 -0.1889475E-09 -0.2157716E-08  0.2526645E-09
  0.7486216E+02  0.1162254E-07  0.7677272E-09  0.1630215E+01  0.3529239E+00 -0.9215175E-06  0.2852739E-06 -0.2557047E+00 -0.4762018E-01 -0.1306252E-09  0.5888978E-10 -0.2146322E-08 -0.4030783E-09
  0.7655676E+02 -0.3698198E-08 -0.2684430E-10  0.1634696E+01  0.2817264E-01 -0.9557104E-06 -0.4338411E-08 -0.2563776E+00 -0.3763486E-02  0.4561922E-10 -0.3194778E-10 -0.2151528E-08 -0.2904915E-10
  0.7825135E+02 -0.2126235E-07  0.6677965E-08  0.1641366E+01 -0.6130937E+00 -0.6409055E-07  0.3665518E-06 -0.2573430E+00  0.8301747E-01  0.1936999E-08  0.7594281E-10 -0.2159384E-08  0.7209480E-09
  0.7994595E+02  0.1828956E-08 -0.1029775E-07  0.1647693E+01 -0.7499293E+00 -0.4207415E-06  0.4728245E-06 -0.2582575E+00  0.1015980E+00 -0.1038253E-08  0.1371063E-09 -0.2166791E-08  0.8839764E-09
  0.8164054E+02  0.9342823E-08 -0.9887913E-10  0.1643700E+01 -0.4563005E-01  0.4074053E-06  0.2961281E-07 -0.2577729E+00  0.6233992E-02  0.1254836E-09 -0.4695266E-10 -0.2161933E-08  0.5744896E-10
  0.8333514E+02  0.3883531E-08 -0.1867448E-09  0.1635974E+01  0.4505401E-01 -0.3967348E-06 -0.1061647E-07 -0.2567670E+00 -0.6058290E-02 -0.4386435E-09  0.4276757E-10 -0.2152749E-08 -0.4959646E-10
  0.8502972E+02  0.2237131E-08 -0.7789822E-09  0.1643073E+01  0.5460972E+00 -0.9838229E-06 -0.6273422E-07 -0.2577775E+00 -0.7402776E-01 -0.1834612E-09  0.5343281E-10 -0.2161021E-08 -0.6460484E-09
  0.8672433E+02 -0.2671298E-07  0.4153662E-08  0.1633513E+01  0.8765805E+00 -0.2265271E-05 -0.6639348E-06 -0.2565287E+00 -0.1187678E+00  0.2375978E-09  0.5084075E-09 -0.2149791E-08 -0.1030367E-08
  0.8841892E+02 -0.2136370E-07  0.2845695E-08  0.1638058E+01  0.2940336E+00 -0.7158484E-06 -0.3814830E-07 -0.2571883E+00 -0.3988871E-01 -0.1263968E-09  0.2191882E-09 -0.2155172E-08 -0.3489799E-09
  0.9011351E+02 -0.4601656E-08  0.1901753E-08  0.1641129E+01  0.3353850E+00 -0.4389272E-06 -0.2612464E-06 -0.2576460E+00 -0.4545670E-01  0.8151727E-09  0.3964260E-09 -0.2158741E-08 -0.3940586E-09
  0.9180811E+02  0.2789663E-10 -0.1469971E-09  0.1651196E+01 -0.5196762E-01  0.1472688E-05 -0.5267350E-07 -0.2590494E+00  0.7042049E-02  0.1262957E-08 -0.2013678E-10 -0.2170592E-08  0.6083068E-10
  0.9350270E+02  0.1815529E-07 -0.2124239E-09  0.1649143E+01 -0.3247761E-01 -0.6604131E-06  0.1731541E-07 -0.2588080E+00  0.4406111E-02  0.7171475E-09 -0.3325340E-11 -0.2168182E-08  0.3837886E-10
  0.9519730E+02  0.9673018E-08 -0.9839027E-09  0.1648074E+01  0.9180337E-01  0.2069404E-05 -0.4011576E-07 -0.2586981E+00 -0.1244621E-01 -0.8083267E-09 -0.8981260E-11 -0.2166940E-08 -0.1076764E-09
  0.9689189E+02  0.9905142E-08  0.8921575E-09  0.1645488E+01  0.8988505E-01 -0.2032741E-06  0.5234597E-08 -0.2583804E+00 -0.1218691E-01  0.8867048E-09  0.5428547E-11 -0.2163948E-08 -0.1053666E-09
  0.9858649E+02  0.3533087E-07 -0.1624585E-09  0.1644475E+01  0.1594949E+00  0.3325636E-06  0.1646483E-06 -0.2582746E+00 -0.2162096E-01 -0.7911659E-10 -0.1367084E-09 -0.2162779E-08 -0.1864783E-09
  0.1002811E+03 -0.2147414E-07  0.1684839E-09  0.1644979E+01  0.1948203E+00 -0.1003288E-06  0.5488255E-07 -0.2583726E+00 -0.2641470E-01 -0.1276979E-10  0.5087486E-10 -0.2163406E-08 -0.2279117E-09
  0.1019757E+03 -0.2395074E-08 -0.1336730E-08  0.1646175E+01  0.1453323E+00  0.5190164E-06  0.2206025E-07 -0.2585629E+00 -0.1970280E-01 -0.8230926E-09  0.5627498E-11 -0.2164871E-08 -0.1697142E-09
  0.1036703E+03  0.8538820E-08 -0.8187726E-09  0.1650822E+01  0.2784521E+00 -0.8339656E-06 -0.4943331E-07 -0.2592202E+00 -0.3776079E-01 -0.8466953E-09  0.1621174E-09 -0.2170228E-08 -0.3256883E-09
  0.1053649E+03  0.8735163E-08  0.4503136E-09  0.1654204E+01  0.1682581E+00  0.4855628E-06  0.7703329E-07 -0.2597041E+00 -0.2281453E-01  0.1076151E-08 -0.3404921E-10 -0.2174266E-08 -0.1964575E-09
  0.1070595E+03 -0.8407691E-08  0.5012168E-10  0.1658249E+01 -0.8969670E-02  0.1996803E-05 -0.1504844E-08 -0.2602772E+00  0.1216032E-02 -0.5937144E-09  0.9947598E-11 -0.2179006E-08  0.1045220E-10
  0.1087541E+03  0.2277908E-08  0.7097256E-10  0.1657970E+01  0.6998926E-02 -0.7255308E-06 -0.2569990E-08 -0.2602624E+00 -0.9493494E-03  0.6433377E-09  0.1350031E-12 -0.2178668E-08 -0.8182400E-11
  0.1104486E+03 -0.8465910E-08  0.1092317E-09  0.1657886E+01  0.1670882E-01 -0.1800776E-06 -0.2709598E-07 -0.2602739E+00 -0.2265756E-02  0.4669320E-09  0.1277556E-10 -0.2178638E-08 -0.1947529E-10
  0.1121432E+03  0.6093619E-08  0.2066685E-09  0.1658390E+01  0.1733035E-01 -0.7883544E-06  0.1566548E-07 -0.2603627E+00 -0.2350234E-02 -0.1636038E-08 -0.5471179E-11 -0.2179238E-08 -0.2019598E-10
  0.1138378E+03 -0.1936475E-07  0.2024407E-09  0.1659614E+01  0.1491733E-01  0.5624695E-06  0.1433429E-07 -0.2605493E+00 -0.2022932E-02  0.1684291E-08  0.7965184E-11 -0.2180661E-08 -0.1737449E-10
  0.1155324E+03  0.1027795E-09 -0.3148060E-10  0.1661962E+01  0.5230375E-02  0.3875795E-06 -0.7483436E-10 -0.2608870E+00 -0.7093842E-03  0.1336134E-08  0.1023182E-11 -0.2183437E-08 -0.6095102E-11
  0.1172270E+03 -0.1361706E-07  0.0000000E+00  0.1650841E+01  0.0000000E+00 -0.1644486E-05  0.0000000E+00 -0.2593968E+00  0.0000000E+00 -0.1745828E-08  0.0000000E+00 -0.2170497E-08  0.0000000E+00
  0.1189216E+03 -0.1143384E-08  0.0000000E+00  0.1651966E+01  0.0000000E+00  0.5974105E-06  0.0000000E+00 -0.2595673E+00  0.0000000E+00  0.1477198E-08  0.0000000E+00 -0.2171830E-08  0.0000000E+00
  0.1206162E+03 -0.3171553E-08  0.0000000E+00  0.1653043E+01  0.0000000E+00 -0.6030778E-06  0.0000000E+00 -0.2597302E+00  0.0000000E+00  0.7721372E-10  0.0000000E+00 -0.2173116E-08  0.0000000E+00
  0.1223108E+03 -0.9843507E-08  0.0000000E+00  0.1654077E+01  0.0000000E+00  0.2604808E-06  0.0000000E+00 -0.2598865E+00  0.0000000E+00 -0.7738127E-09  0.0000000E+00 -0.2174366E-08  0.0000000E+00
  0.1240054E+03 -0.6432605E-08  0.0000000E+00  0.1655067E+01  0.0000000E+00  0.6264374E-06  0.0000000E+00 -0.2600364E+00  0.0000000E+00  0.1396923E-08  0.0000000E+00 -0.2175554E-08  0.0000000E+00
  0.1257000E+03  0.2639488E-08  0.0000000E+00  0.1656017E+01  0.0000000E+00 -0.7113986E-06  0.0000000E+00 -0.2601802E+00  0.0000000E+00 -0.1296591E-09  0.0000000E+00 -0.2176677E-08  0.0000000E+00
Zone t="Motion of body    1 in DoF   3",I=    75,F=POINT
  0.3000000E+00 -0.7116856E-06  0.1753506E-08  0.5289500E-06  0.3106067E-08  0.3979662E+02  0.6234452E-01 -0.2513722E-06 -0.7743211E-09 -0.5902257E-06  0.4920366E-09 -0.1535808E-13 -0.4727121E-16