VARIABLES="X" "Y" "Z" "NX" "NY" "NZ" "A"
 ZONE N=        1120 , E=         455  , F=FEPOINT,ET=QUADRILATERAL
   0.2073950E+00   0.1866590E-01  -0.7000000E-01   0.0000000E+00   0.0000000E+00   0.0000000E+00   0.0000000E+00
   0.2203593E+00   0.1983270E-01  -0.5250000E-01   0.0000000E+00   0.0000000E+00   0.0000000E+00   0.0000000E+00
   0.2333235E+00   0.2099950E-01  -0.3500000E-01   0.0000000E+00   0.0000000E+00   0.0000000E+00   0.0000000E+00
   0.2462878E+00   0.2216630E-01  -0.1750000E-01   0.0000000E+00   0.0000000E+00   0.0000000E+00   0.0000000E+00
   0.2592521E+00   0.2333310E-01   0.0000000E+00   0.0000000E+00   0.0000000E+00   0.0000000E+00   0.0000000E+00
   0.2082333E+00   0.0000000E+00  -0.7000000E-01   0.0000000E+00   0.0000000E+00   0.0000000E+00   0.0000000E+00
   0.2212500E+00   0.0000000E+00  -0.5250000E-01   0.0000000E+00   0.0000000E+00   0.0000000E+00   0.0000000E+00
   0.2342667E+00   0.0000000E+00  -0.3500000E-01   0.0000000E+00   0.0000000E+00   0.0000000E+00   0.0000000E+00
   0.2472833E+00   0.0000000E+00  -0.1750000E-01   0.0000000E+00   0.0000000E+00   0.0000000E+00   0.0000000E+00
   0.2603000E+00   0.0000000E+00   0.0000000E+00   0.0000000E+00   0.0000000E+00   0.0000000E+00   0.0000000E+00
   0.2048869E+00   0.3718150E-01  -0.7000000E-01   0.0000000E+00   0.0000000E+00   0.0000000E+00   0.0000000E+00
   0.2176944E+00   0.3950570E-01  -0.5250000E-01   0.0000000E+00   0.0000000E+00   0.0000000E+00   0.0000000E+00
   0.2305019E+00   0.4182990E-01  -0.3500000E-01   0.0000000E+00   0.0000000E+00   0.0000000E+00   0.0000000E+00
   0.2433094E+00   0.4415410E-01  -0.1750000E-01   0.0000000E+00   0.0000000E+00   0.0000000E+00   0.0000000E+00
   0.2561169E+00   0.4647840E-01   0.0000000E+00   0.0000000E+00   0.0000000E+00   0.0000000E+00   0.0000000E+00
   0.2073950E+00   0.1866590E-01  -0.7000000E-01   0.0000000E+00   0.0000000E+00   0.0000000E+00   0.0000000E+00
   0.2203593E+00   0.1983270E-01  -0.5250000E-01   0.0000000E+00   0.0000000E+00   0.0000000E+00   0.0000000E+00
   0.2333235E+00   0.2099950E-01  -0.3500000E-01   0.0000000E+00   0.0000000E+00   0.0000000E+00   0.0000000E+00
   0.2462878E+00   0.2216630E-01  -0.1750000E-01   0.0000000E+00   0.0000000E+00   0.0000000E+00   0.0000000E+00
   0.2592521E+00   0.2333310E-01   0.0000000E+00   0.0000000E+00   0.0000000E+00   0.0000000E+00   0.0000000E+00
   0.2007292E+00   0.5539770E-01  -0.7000000E-01   0.0000000E+00   0.0000000E+00   0.0000000E+00   0.0000000E+00
   0.2132768E+00   0.5886070E-01  -0.5250000E-01   0.0000000E+00   0.0000000E+00   0.0000000E+00   0.0000000E+00
   0.2258244E+00   0.6232360E-01  -0.3500000E-01   0.0000000E+00   0.0000000E+00   0.0000000E+00   0.0000000E+00
   0.2383719E+00   0.6578650E-01  -0.1750000E-01   0.0000000E+00   0.0000000E+00   0.0000000E+00   0.0000000E+00
   0.2509195E+00   0.6924940E-01   0.0000000E+00   0.0000000E+00   0.0000000E+00   0.0000000E+00   0.0000000E+00
   0.2048869E+00   0.3718150E-01  -0.7000000E-01   0.0000000E+00   0.0000000E+00   0.0000000E+00   0.0000000E+00
   0.2176944E+00   0.3950570E-01  -0.5250000E-01   0.0000000E+00   0.0000000E+00   0.0000000E+00   0.0000000E+00
   0.2305019E+00   0.4182990E-01  -0.3500000E-01   0.0000000E+00   0.0000000E+00   0.0000000E+00   0.0000000E+00
   0.2433094E+00   0.4415410E-01  -0.1750000E-01   0.0000000E+00   0.0000000E+00   0.0000000E+00   0.0000000E+00
   0.2561169E+00   0.4647840E-01   0.0000000E+00   0.0000000E+00   0.0000000E+00   0.0000000E+00   0.0000000E+00
   0.1949553E+00   0.7316790E-01  -0.7000000E-01   0.0000000E+00   0.0000000E+00   0.0000000E+00   0.0000000E+00
   0.2071420E+00   0.7774170E-01  -0.5250000E-01   0.0000000E+00   0.0000000E+00   0.0000000E+00   0.0000000E+00
   0.2193286E+00   0.8231540E-01  -0.3500000E-01   0.0000000E+00   0.0000000E+00   0.0000000E+00   0.0000000E+00
   0.2315153E+00   0.8688910E-01  -0.1750000E-01   0.0000000E+00   0.0000000E+00   0.0000000E+00   0.0000000E+00
   0.2437019E+00   0.9146290E-01   0.0000000E+00   0.0000000E+00   0.0000000E+00   0.0000000E+00   0.0000000E+00
   0.2007292E+00   0.5539770E-01  -0.7000000E-01   0.0000000E+00   0.0000000E+00   0.0000000E+00   0.0000000E+00
   0.2132768E+00   0.5886070E-01  -0.5250000E-01   0.0000000E+00   0.0000000E+00   0.0000000E+00   0.0000000E+00
   0.2258244E+00   0.6232360E-01  -0.3500000E-01   0.0000000E+00   0.0000000E+00   0.0000000E+00   0.0000000E+00
   0.2383719E+00   0.6578650E-01  -0.1750000E-01   0.0000000E+00   0.0000000E+00   0.0000000E+00   0.0000000E+00
   0.2509195E+00   0.6924940E-01   0.0000000E+00   0.0000000E+00   0.0000000E+00   0.0000000E+00   0.0000000E+00
   0.1876118E+00   0.9034910E-01  -0.7000000E-01   0.0000000E+00   0.0000000E+00   0.0000000E+00   0.0000000E+00
   0.1993394E+00   0.9599680E-01  -0.5250000E-01   0.0000000E+00   0.0000000E+00   0.0000000E+00   0.0000000E+00
   0.2110670E+00   0.1016445E+00  -0.3500000E-01   0.0000000E+00   0.0000000E+00   0.0000000E+00   0.0000000E+00
   0.2227946E+00   0.1072922E+00  -0.1750000E-01   0.0000000E+00   0.0000000E+00   0.0000000E+00   0.0000000E+00
   0.2345222E+00   0.1129399E+00   0.0000000E+00   0.0000000E+00   0.0000000E+00   0.0000000E+00   0.0000000E+00
   0.1949553E+00   0.7316790E-01  -0.7000000E-01   0.0000000E+00   0.0000000E+00   0.0000000E+00   0.0000000E+00
   0.2071420E+00   0.7774170E-01  -0.5250000E-01   0.0000000E+00   0.0000000E+00   0.0000000E+00   0.0000000E+00
   0.2193286E+00   0.8231540E-01  -0.3500000E-01   0.0000000E+00   0.0000000E+00   0.0000000E+00   0.0000000E+00
   0.2315153E+00   0.8688910E-01  -0.1750000E-01   0.0000000E+00   0.0000000E+00   0.0000000E+00   0.0000000E+00
   0.2437019E+00   0.9146290E-01   0.0000000E+00   0.0000000E+00   0.0000000E+00   0.0000000E+00   0.0000000E+00
   0.1787577E+00   0.1068027E+00  -0.7000000E-01   0.0000000E+00   0.0000000E+00   0.0000000E+00   0.0000000E+00
   0.1899318E+00   0.1134790E+00  -0.5250000E-01   0.0000000E+00   0.0000000E+00   0.0000000E+00   0.0000000E+00
   0.2011060E+00   0.1201552E+00  -0.3500000E-01   0.0000000E+00   0.0000000E+00   0.0000000E+00   0.0000000E+00
   0.2122801E+00   0.1268314E+00  -0.1750000E-01   0.0000000E+00   0.0000000E+00   0.0000000E+00   0.0000000E+00
   0.2234542E+00   0.1335077E+00   0.0000000E+00   0.0000000E+00   0.0000000E+00   0.0000000E+00   0.0000000E+00
   0.1876118E+00   0.9034910E-01  -0.7000000E-01   0.0000000E+00   0.0000000E+00   0.0000000E+00   0.0000000E+00
   0.1993394E+00   0.9599680E-01  -0.5250000E-01   0.0000000E+00   0.0000000E+00   0.0000000E+00   0.0000000E+00
   0.2110670E+00   0.1016445E+00  -0.3500000E-01   0.0000000E+00   0.0000000E+00   0.0000000E+00   0.0000000E+00
   0.2227946E+00   0.1072922E+00  -0.1750000E-01   0.0000000E+00   0.0000000E+00   0.0000000E+00   0.0000000E+00
   0.2345222E+00   0.1129399E+00   0.0000000E+00   0.0000000E+00   0.0000000E+00   0.0000000E+00   0.0000000E+00
   0.1684643E+00   0.1223965E+00  -0.7000000E-01   0.0000000E+00   0.0000000E+00   0.0000000E+00   0.0000000E+00
   0.1789950E+00   0.1300475E+00  -0.5250000E-01   0.0000000E+00   0.0000000E+00   0.0000000E+00   0.0000000E+00
   0.1895257E+00   0.1376985E+00  -0.3500000E-01   0.0000000E+00   0.0000000E+00   0.0000000E+00   0.0000000E+00
   0.2000564E+00   0.1453495E+00  -0.1750000E-01   0.0000000E+00   0.0000000E+00   0.0000000E+00   0.0000000E+00
   0.2105871E+00   0.1530005E+00   0.0000000E+00   0.0000000E+00   0.0000000E+00   0.0000000E+00   0.0000000E+00
   0.1787577E+00   0.1068027E+00  -0.7000000E-01   0.0000000E+00   0.0000000E+00   0.0000000E+00   0.0000000E+00
   0.1899318E+00   0.1134790E+00  -0.5250000E-01   0.0000000E+00   0.0000000E+00   0.0000000E+00   0.0000000E+00
   0.2011060E+00   0.1201552E+00  -0.3500000E-01   0.0000000E+00   0.0000000E+00   0.0000000E+00   0.0000000E+00
   0.2122801E+00   0.1268314E+00  -0.1750000E-01   0.0000000E+00   0.0000000E+00   0.0000000E+00   0.0000000E+00
   0.2234542E+00   0.1335077E+00   0.0000000E+00   0.0000000E+00   0.0000000E+00   0.0000000E+00   0.0000000E+00
   0.1568146E+00   0.1370048E+00  -0.7000000E-01   0.0000000E+00   0.0000000E+00   0.0000000E+00   0.0000000E+00
   0.1666171E+00   0.1455690E+00  -0.5250000E-01   0.0000000E+00   0.0000000E+00   0.0000000E+00   0.0000000E+00
   0.1764196E+00   0.1541331E+00  -0.3500000E-01   0.0000000E+00   0.0000000E+00   0.0000000E+00   0.0000000E+00
   0.1862220E+00   0.1626973E+00  -0.1750000E-01   0.0000000E+00   0.0000000E+00   0.0000000E+00   0.0000000E+00
   0.1960245E+00   0.1712615E+00   0.0000000E+00   0.0000000E+00   0.0000000E+00   0.0000000E+00   0.0000000E+00
   0.1684643E+00   0.1223965E+00  -0.7000000E-01   0.0000000E+00   0.0000000E+00   0.0000000E+00   0.0000000E+00
   0.1789950E+00   0.1300475E+00  -0.5250000E-01   0.0000000E+00   0.0000000E+00   0.0000000E+00   0.0000000E+00
   0.1895257E+00   0.1376985E+00  -0.3500000E-01   0.0000000E+00   0.0000000E+00   0.0000000E+00   0.0000000E+00
   0.2000564E+00   0.1453495E+00  -0.1750000E-01   0.0000000E+00   0.0000000E+00   0.0000000E+00   0.0000000E+00
   0.2105871E+00   0.1530005E+00   0.0000000E+00   0.0000000E+00   0.0000000E+00   0.0000000E+00   0.0000000E+00
   0.1439023E+00   0.1505100E+00  -0.7000000E-01   0.0000000E+00   0.0000000E+00   0.0000000E+00   0.0000000E+00
   0.1528976E+00   0.1599184E+00  -0.5250000E-01   0.0000000E+00   0.0000000E+00   0.0000000E+00   0.0000000E+00
   0.1618930E+00   0.1693268E+00  -0.3500000E-01   0.0000000E+00   0.0000000E+00   0.0000000E+00   0.0000000E+00
   0.1708883E+00   0.1787351E+00  -0.1750000E-01   0.0000000E+00   0.0000000E+00   0.0000000E+00   0.0000000E+00
   0.1798836E+00   0.1881435E+00   0.0000000E+00   0.0000000E+00   0.0000000E+00   0.0000000E+00   0.0000000E+00
   0.1568146E+00   0.1370048E+00  -0.7000000E-01   0.0000000E+00   0.0000000E+00   0.0000000E+00   0.0000000E+00
   0.1666171E+00   0.1455690E+00  -0.5250000E-01   0.0000000E+00   0.0000000E+00   0.0000000E+00   0.0000000E+00
   0.1764196E+00   0.1541331E+00  -0.3500000E-01   0.0000000E+00   0.0000000E+00   0.0000000E+00   0.0000000E+00
   0.1862220E+00   0.1626973E+00  -0.1750000E-01   0.0000000E+00   0.0000000E+00   0.0000000E+00   0.0000000E+00
   0.1960245E+00   0.1712615E+00   0.0000000E+00   0.0000000E+00   0.0000000E+00   0.0000000E+00   0.0000000E+00
   0.1298314E+00   0.1628034E+00  -0.7000000E-01   0.0000000E+00   0.0000000E+00   0.0000000E+00   0.0000000E+00
   0.1379472E+00   0.1729802E+00  -0.5250000E-01   0.0000000E+00   0.0000000E+00   0.0000000E+00   0.0000000E+00
   0.1460629E+00   0.1831571E+00  -0.3500000E-01   0.0000000E+00   0.0000000E+00   0.0000000E+00   0.0000000E+00
   0.1541786E+00   0.1933339E+00  -0.1750000E-01   0.0000000E+00   0.0000000E+00   0.0000000E+00   0.0000000E+00
   0.1622944E+00   0.2035107E+00   0.0000000E+00   0.0000000E+00   0.0000000E+00   0.0000000E+00   0.0000000E+00
   0.1439023E+00   0.1505100E+00  -0.7000000E-01   0.0000000E+00   0.0000000E+00   0.0000000E+00   0.0000000E+00
   0.1528976E+00   0.1599184E+00  -0.5250000E-01   0.0000000E+00   0.0000000E+00   0.0000000E+00   0.0000000E+00
   0.1618930E+00   0.1693268E+00  -0.3500000E-01   0.0000000E+00   0.0000000E+00   0.0000000E+00   0.0000000E+00
   0.1708883E+00   0.1787351E+00  -0.1750000E-01   0.0000000E+00   0.0000000E+00   0.0000000E+00   0.0000000E+00
   0.1798836E+00   0.1881435E+00   0.0000000E+00   0.0000000E+00   0.0000000E+00   0.0000000E+00   0.0000000E+00
   0.1147151E+00   0.1737860E+00  -0.7000000E-01   0.0000000E+00   0.0000000E+00   0.0000000E+00   0.0000000E+00
   0.1218859E+00   0.1846493E+00  -0.5250000E-01   0.0000000E+00   0.0000000E+00   0.0000000E+00   0.0000000E+00
   0.1290568E+00   0.1955127E+00  -0.3500000E-01   0.0000000E+00   0.0000000E+00   0.0000000E+00   0.0000000E+00
   0.1362276E+00   0.2063760E+00  -0.1750000E-01   0.0000000E+00   0.0000000E+00   0.0000000E+00   0.0000000E+00
   0.1433985E+00   0.2172394E+00   0.0000000E+00   0.0000000E+00   0.0000000E+00   0.0000000E+00   0.0000000E+00
   0.1298314E+00   0.1628034E+00  -0.7000000E-01   0.0000000E+00   0.0000000E+00   0.0000000E+00   0.0000000E+00
   0.1379472E+00   0.1729802E+00  -0.5250000E-01   0.0000000E+00   0.0000000E+00   0.0000000E+00   0.0000000E+00
   0.1460629E+00   0.1831571E+00  -0.3500000E-01   0.0000000E+00   0.0000000E+00   0.0000000E+00   0.0000000E+00
   0.1541786E+00   0.1933339E+00  -0.1750000E-01   0.0000000E+00   0.0000000E+00   0.0000000E+00   0.0000000E+00
   0.1622944E+00   0.2035107E+00   0.0000000E+00   0.0000000E+00   0.0000000E+00   0.0000000E+00   0.0000000E+00
   0.9867530E-01   0.1833693E+00  -0.7000000E-01   0.0000000E+00   0.0000000E+00   0.0000000E+00   0.0000000E+00
   0.1048434E+00   0.1948317E+00  -0.5250000E-01   0.0000000E+00   0.0000000E+00   0.0000000E+00   0.0000000E+00
   0.1110116E+00   0.2062941E+00  -0.3500000E-01   0.0000000E+00   0.0000000E+00   0.0000000E+00   0.0000000E+00
   0.1171798E+00   0.2177566E+00  -0.1750000E-01   0.0000000E+00   0.0000000E+00   0.0000000E+00   0.0000000E+00
   0.1233480E+00   0.2292190E+00   0.0000000E+00   0.0000000E+00   0.0000000E+00   0.0000000E+00   0.0000000E+00
   0.1147151E+00   0.1737860E+00  -0.7000000E-01   0.0000000E+00   0.0000000E+00   0.0000000E+00   0.0000000E+00
   0.1218859E+00   0.1846493E+00  -0.5250000E-01   0.0000000E+00   0.0000000E+00   0.0000000E+00   0.0000000E+00
   0.1290568E+00   0.1955127E+00  -0.3500000E-01   0.0000000E+00   0.0000000E+00   0.0000000E+00   0.0000000E+00
   0.1362276E+00   0.2063760E+00  -0.1750000E-01   0.0000000E+00   0.0000000E+00   0.0000000E+00   0.0000000E+00
   0.1433985E+00   0.2172394E+00   0.0000000E+00   0.0000000E+00   0.0000000E+00   0.0000000E+00   0.0000000E+00
   0.8184090E-01   0.1914763E+00  -0.7000000E-01   0.0000000E+00   0.0000000E+00   0.0000000E+00   0.0000000E+00
   0.8695680E-01   0.2034455E+00  -0.5250000E-01   0.0000000E+00   0.0000000E+00   0.0000000E+00   0.0000000E+00
   0.9207270E-01   0.2154147E+00  -0.3500000E-01   0.0000000E+00   0.0000000E+00   0.0000000E+00   0.0000000E+00
   0.9718850E-01   0.2273839E+00  -0.1750000E-01   0.0000000E+00   0.0000000E+00   0.0000000E+00   0.0000000E+00
   0.1023044E+00   0.2393531E+00   0.0000000E+00   0.0000000E+00   0.0000000E+00   0.0000000E+00   0.0000000E+00
   0.9867530E-01   0.1833693E+00  -0.7000000E-01   0.0000000E+00   0.0000000E+00   0.0000000E+00   0.0000000E+00
   0.1048434E+00   0.1948317E+00  -0.5250000E-01   0.0000000E+00   0.0000000E+00   0.0000000E+00   0.0000000E+00
   0.1110116E+00   0.2062941E+00  -0.3500000E-01   0.0000000E+00   0.0000000E+00   0.0000000E+00   0.0000000E+00
   0.1171798E+00   0.2177566E+00  -0.1750000E-01   0.0000000E+00   0.0000000E+00   0.0000000E+00   0.0000000E+00
   0.1233480E+00   0.2292190E+00   0.0000000E+00   0.0000000E+00   0.0000000E+00   0.0000000E+00   0.0000000E+00
   0.6434760E-01   0.1980417E+00  -0.7000000E-01   0.0000000E+00   0.0000000E+00   0.0000000E+00   0.0000000E+00
   0.6837000E-01   0.2104213E+00  -0.5250000E-01   0.0000000E+00   0.0000000E+00   0.0000000E+00   0.0000000E+00
   0.7239240E-01   0.2228009E+00  -0.3500000E-01   0.0000000E+00   0.0000000E+00   0.0000000E+00   0.0000000E+00
   0.7641470E-01   0.2351804E+00  -0.1750000E-01   0.0000000E+00   0.0000000E+00   0.0000000E+00   0.0000000E+00
   0.8043710E-01   0.2475600E+00   0.0000000E+00   0.0000000E+00   0.0000000E+00   0.0000000E+00   0.0000000E+00
   0.8184090E-01   0.1914763E+00  -0.7000000E-01   0.0000000E+00   0.0000000E+00   0.0000000E+00   0.0000000E+00
   0.8695680E-01   0.2034455E+00  -0.5250000E-01   0.0000000E+00   0.0000000E+00   0.0000000E+00   0.0000000E+00
   0.9207270E-01   0.2154147E+00  -0.3500000E-01   0.0000000E+00   0.0000000E+00   0.0000000E+00   0.0000000E+00
   0.9718850E-01   0.2273839E+00  -0.1750000E-01   0.0000000E+00   0.0000000E+00   0.0000000E+00   0.0000000E+00
   0.1023044E+00   0.2393531E+00   0.0000000E+00   0.0000000E+00   0.0000000E+00   0.0000000E+00   0.0000000E+00
   0.4633630E-01   0.2030125E+00  -0.7000000E-01   0.0000000E+00   0.0000000E+00   0.0000000E+00   0.0000000E+00
   0.4923280E-01   0.2157028E+00  -0.5250000E-01   0.0000000E+00   0.0000000E+00   0.0000000E+00   0.0000000E+00
   0.5212920E-01   0.2283931E+00  -0.3500000E-01   0.0000000E+00   0.0000000E+00   0.0000000E+00   0.0000000E+00
   0.5502570E-01   0.2410834E+00  -0.1750000E-01   0.0000000E+00   0.0000000E+00   0.0000000E+00   0.0000000E+00
   0.5792220E-01   0.2537737E+00   0.0000000E+00   0.0000000E+00   0.0000000E+00   0.0000000E+00   0.0000000E+00
   0.6434760E-01   0.1980417E+00  -0.7000000E-01   0.0000000E+00   0.0000000E+00   0.0000000E+00   0.0000000E+00
   0.6837000E-01   0.2104213E+00  -0.5250000E-01   0.0000000E+00   0.0000000E+00   0.0000000E+00   0.0000000E+00
   0.7239240E-01   0.2228009E+00  -0.3500000E-01   0.0000000E+00   0.0000000E+00   0.0000000E+00   0.0000000E+00
   0.7641470E-01   0.2351804E+00  -0.1750000E-01   0.0000000E+00   0.0000000E+00   0.0000000E+00   0.0000000E+00
   0.8043710E-01   0.2475600E+00   0.0000000E+00   0.0000000E+00   0.0000000E+00   0.0000000E+00   0.0000000E+00
   0.2795180E-01   0.2063488E+00  -0.7000000E-01   0.0000000E+00   0.0000000E+00   0.0000000E+00   0.0000000E+00
   0.2969910E-01   0.2192477E+00  -0.5250000E-01   0.0000000E+00   0.0000000E+00   0.0000000E+00   0.0000000E+00
   0.3144640E-01   0.2321465E+00  -0.3500000E-01   0.0000000E+00   0.0000000E+00   0.0000000E+00   0.0000000E+00
   0.3319370E-01   0.2450453E+00  -0.1750000E-01   0.0000000E+00   0.0000000E+00   0.0000000E+00   0.0000000E+00
   0.3494090E-01   0.2579442E+00   0.0000000E+00   0.0000000E+00   0.0000000E+00   0.0000000E+00   0.0000000E+00
   0.4633630E-01   0.2030125E+00  -0.7000000E-01   0.0000000E+00   0.0000000E+00   0.0000000E+00   0.0000000E+00
   0.4923280E-01   0.2157028E+00  -0.5250000E-01   0.0000000E+00   0.0000000E+00   0.0000000E+00   0.0000000E+00
   0.5212920E-01   0.2283931E+00  -0.3500000E-01   0.0000000E+00   0.0000000E+00   0.0000000E+00   0.0000000E+00
   0.5502570E-01   0.2410834E+00  -0.1750000E-01   0.0000000E+00   0.0000000E+00   0.0000000E+00   0.0000000E+00
   0.5792220E-01   0.2537737E+00   0.0000000E+00   0.0000000E+00   0.0000000E+00   0.0000000E+00   0.0000000E+00
   0.9342400E-02   0.2080237E+00  -0.7000000E-01   0.0000000E+00   0.0000000E+00   0.0000000E+00   0.0000000E+00
   0.9926300E-02   0.2210273E+00  -0.5250000E-01   0.0000000E+00   0.0000000E+00   0.0000000E+00   0.0000000E+00
   0.1051030E-01   0.2340308E+00  -0.3500000E-01   0.0000000E+00   0.0000000E+00   0.0000000E+00   0.0000000E+00
   0.1109430E-01   0.2470343E+00  -0.1750000E-01   0.0000000E+00   0.0000000E+00   0.0000000E+00   0.0000000E+00
   0.1167830E-01   0.2600379E+00   0.0000000E+00   0.0000000E+00   0.0000000E+00   0.0000000E+00   0.0000000E+00
   0.2795180E-01   0.2063488E+00  -0.7000000E-01   0.0000000E+00   0.0000000E+00   0.0000000E+00   0.0000000E+00
   0.2969910E-01   0.2192477E+00  -0.5250000E-01   0.0000000E+00   0.0000000E+00   0.0000000E+00   0.0000000E+00
   0.3144640E-01   0.2321465E+00  -0.3500000E-01   0.0000000E+00   0.0000000E+00   0.0000000E+00   0.0000000E+00
   0.3319370E-01   0.2450453E+00  -0.1750000E-01   0.0000000E+00   0.0000000E+00   0.0000000E+00   0.0000000E+00
   0.3494090E-01   0.2579442E+00   0.0000000E+00   0.0000000E+00   0.0000000E+00   0.0000000E+00   0.0000000E+00
  -0.9342400E-02   0.2080237E+00  -0.7000000E-01   0.0000000E+00   0.0000000E+00   0.0000000E+00   0.0000000E+00
  -0.9926300E-02   0.2210273E+00  -0.5250000E-01   0.0000000E+00   0.0000000E+00   0.0000000E+00   0.0000000E+00
  -0.1051030E-01   0.2340308E+00  -0.3500000E-01   0.0000000E+00   0.0000000E+00   0.0000000E+00   0.0000000E+00
  -0.1109430E-01   0.2470343E+00  -0.1750000E-01   0.0000000E+00   0.0000000E+00   0.0000000E+00   0.0000000E+00
  -0.1167830E-01   0.2600379E+00   0.0000000E+00   0.0000000E+00   0.0000000E+00   0.0000000E+00   0.0000000E+00
   0.9342400E-02   0.2080237E+00  -0.7000000E-01   0.0000000E+00   0.0000000E+00   0.0000000E+00   0.0000000E+00
   0.9926300E-02   0.2210273E+00  -0.5250000E-01   0.0000000E+00   0.0000000E+00   0.0000000E+00   0.0000000E+00
   0.1051030E-01   0.2340308E+00  -0.3500000E-01   0.0000000E+00   0.0000000E+00   0.0000000E+00   0.0000000E+00
   0.1109430E-01   0.2470343E+00  -0.1750000E-01   0.0000000E+00   0.0000000E+00   0.0000000E+00   0.0000000E+00
   0.1167830E-01   0.2600379E+00   0.0000000E+00   0.0000000E+00   0.0000000E+00   0.0000000E+00   0.0000000E+00
  -0.2795180E-01   0.2063488E+00  -0.7000000E-01   0.0000000E+00   0.0000000E+00   0.0000000E+00   0.0000000E+00
  -0.2969910E-01   0.2192477E+00  -0.5250000E-01   0.0000000E+00   0.0000000E+00   0.0000000E+00   0.0000000E+00
  -0.3144640E-01   0.2321465E+00  -0.3500000E-01   0.0000000E+00   0.0000000E+00   0.0000000E+00   0.0000000E+00
  -0.3319370E-01   0.2450453E+00  -0.1750000E-01   0.0000000E+00   0.0000000E+00   0.0000000E+00   0.0000000E+00
  -0.3494090E-01   0.2579442E+00   0.0000000E+00   0.0000000E+00   0.0000000E+00   0.0000000E+00   0.0000000E+00
  -0.9342400E-02   0.2080237E+00  -0.7000000E-01   0.0000000E+00   0.0000000E+00   0.0000000E+00   0.0000000E+00
  -0.9926300E-02   0.2210273E+00  -0.5250000E-01   0.0000000E+00   0.0000000E+00   0.0000000E+00   0.0000000E+00
  -0.1051030E-01   0.2340308E+00  -0.3500000E-01   0.0000000E+00   0.0000000E+00   0.0000000E+00   0.0000000E+00
  -0.1109430E-01   0.2470343E+00  -0.1750000E-01   0.0000000E+00   0.0000000E+00   0.0000000E+00   0.0000000E+00
  -0.1167830E-01   0.2600379E+00   0.0000000E+00   0.0000000E+00   0.0000000E+00   0.0000000E+00   0.0000000E+00
  -0.4633630E-01   0.2030125E+00  -0.7000000E-01   0.0000000E+00   0.0000000E+00   0.0000000E+00   0.0000000E+00
  -0.4923280E-01   0.2157028E+00  -0.5250000E-01   0.0000000E+00   0.0000000E+00   0.0000000E+00   0.0000000E+00
  -0.5212920E-01   0.2283931E+00  -0.3500000E-01   0.0000000E+00   0.0000000E+00   0.0000000E+00   0.0000000E+00
  -0.5502570E-01   0.2410834E+00  -0.1750000E-01   0.0000000E+00   0.0000000E+00   0.0000000E+00   0.0000000E+00
  -0.5792220E-01   0.2537737E+00   0.0000000E+00   0.0000000E+00   0.0000000E+00   0.0000000E+00   0.0000000E+00
  -0.2795180E-01   0.2063488E+00  -0.7000000E-01   0.0000000E+00   0.0000000E+00   0.0000000E+00   0.0000000E+00
  -0.2969910E-01   0.2192477E+00  -0.5250000E-01   0.0000000E+00   0.0000000E+00   0.0000000E+00   0.0000000E+00
  -0.3144640E-01   0.2321465E+00  -0.3500000E-01   0.0000000E+00   0.0000000E+00   0.0000000E+00   0.0000000E+00
  -0.3319370E-01   0.2450453E+00  -0.1750000E-01   0.0000000E+00   0.0000000E+00   0.0000000E+00   0.0000000E+00
  -0.3494090E-01   0.2579442E+00   0.0000000E+00   0.0000000E+00   0.0000000E+00   0.0000000E+00   0.0000000E+00
  -0.6434760E-01   0.1980417E+00  -0.7000000E-01   0.0000000E+00   0.0000000E+00   0.0000000E+00   0.0000000E+00
  -0.6837000E-01   0.2104213E+00  -0.5250000E-01   0.0000000E+00   0.0000000E+00   0.0000000E+00   0.0000000E+00
  -0.7239240E-01   0.2228009E+00  -0.3500000E-01   0.0000000E+00   0.0000000E+00   0.0000000E+00   0.0000000E+00
  -0.7641470E-01   0.2351804E+00  -0.1750000E-01   0.0000000E+00   0.0000000E+00   0.0000000E+00   0.0000000E+00
  -0.8043710E-01   0.2475600E+00   0.0000000E+00   0.0000000E+00   0.0000000E+00   0.0000000E+00   0.0000000E+00
  -0.4633630E-01   0.2030125E+00  -0.7000000E-01   0.0000000E+00   0.0000000E+00   0.0000000E+00   0.0000000E+00
  -0.4923280E-01   0.2157028E+00  -0.5250000E-01   0.0000000E+00   0.0000000E+00   0.0000000E+00   0.0000000E+00
  -0.5212920E-01   0.2283931E+00  -0.3500000E-01   0.0000000E+00   0.0000000E+00   0.0000000E+00   0.0000000E+00
  -0.5502570E-01   0.2410834E+00  -0.1750000E-01   0.0000000E+00   0.0000000E+00   0.0000000E+00   0.0000000E+00
  -0.5792220E-01   0.2537737E+00   0.0000000E+00   0.0000000E+00   0.0000000E+00   0.0000000E+00   0.0000000E+00
  -0.8184090E-01   0.1914763E+00  -0.7000000E-01   0.0000000E+00   0.0000000E+00   0.0000000E+00   0.0000000E+00
  -0.8695680E-01   0.2034455E+00  -0.5250000E-01   0.0000000E+00   0.0000000E+00   0.0000000E+00   0.0000000E+00
  -0.9207270E-01   0.2154147E+00  -0.3500000E-01   0.0000000E+00   0.0000000E+00   0.0000000E+00   0.0000000E+00
  -0.9718850E-01   0.2273839E+00  -0.1750000E-01   0.0000000E+00   0.0000000E+00   0.0000000E+00   0.0000000E+00
  -0.1023044E+00   0.2393531E+00   0.0000000E+00   0.0000000E+00   0.0000000E+00   0.0000000E+00   0.0000000E+00
  -0.6434760E-01   0.1980417E+00  -0.7000000E-01   0.0000000E+00   0.0000000E+00   0.0000000E+00   0.0000000E+00
  -0.6837000E-01   0.2104213E+00  -0.5250000E-01   0.0000000E+00   0.0000000E+00   0.0000000E+00   0.0000000E+00
  -0.7239240E-01   0.2228009E+00  -0.3500000E-01   0.0000000E+00   0.0000000E+00   0.0000000E+00   0.0000000E+00
  -0.7641470E-01   0.2351804E+00  -0.1750000E-01   0.0000000E+00   0.0000000E+00   0.0000000E+00   0.0000000E+00
  -0.8043710E-01   0.2475600E+00   0.0000000E+00   0.0000000E+00   0.0000000E+00   0.0000000E+00   0.0000000E+00
  -0.9867530E-01   0.1833693E+00  -0.7000000E-01   0.0000000E+00   0.0000000E+00   0.0000000E+00   0.0000000E+00
  -0.1048434E+00   0.1948317E+00  -0.5250000E-01   0.0000000E+00   0.0000000E+00   0.0000000E+00   0.0000000E+00
  -0.1110116E+00   0.2062941E+00  -0.3500000E-01   0.0000000E+00   0.0000000E+00   0.0000000E+00   0.0000000E+00
  -0.1171798E+00   0.2177566E+00  -0.1750000E-01   0.0000000E+00   0.0000000E+00   0.0000000E+00   0.0000000E+00
  -0.1233480E+00   0.2292190E+00   0.0000000E+00   0.0000000E+00   0.0000000E+00   0.0000000E+00   0.0000000E+00
  -0.8184090E-01   0.1914763E+00  -0.7000000E-01   0.0000000E+00   0.0000000E+00   0.0000000E+00   0.0000000E+00
  -0.8695680E-01   0.2034455E+00  -0.5250000E-01   0.0000000E+00   0.0000000E+00   0.0000000E+00   0.0000000E+00
  -0.9207270E-01   0.2154147E+00  -0.3500000E-01   0.0000000E+00   0.0000000E+00   0.0000000E+00   0.0000000E+00
  -0.9718850E-01   0.2273839E+00  -0.1750000E-01   0.0000000E+00   0.0000000E+00   0.0000000E+00   0.0000000E+00
  -0.1023044E+00   0.2393531E+00   0.0000000E+00   0.0000000E+00   0.0000000E+00   0.0000000E+00   0.0000000E+00
  -0.1147151E+00   0.1737860E+00  -0.7000000E-01   0.0000000E+00   0.0000000E+00   0.0000000E+00   0.0000000E+00
  -0.1218859E+00   0.1846493E+00  -0.5250000E-01   0.0000000E+00   0.0000000E+00   0.0000000E+00   0.0000000E+00
  -0.1290568E+00   0.1955127E+00  -0.3500000E-01   0.0000000E+00   0.0000000E+00   0.0000000E+00   0.0000000E+00
  -0.1362276E+00   0.2063760E+00  -0.1750000E-01   0.0000000E+00   0.0000000E+00   0.0000000E+00   0.0000000E+00
  -0.1433985E+00   0.2172394E+00   0.0000000E+00   0.0000000E+00   0.0000000E+00   0.0000000E+00   0.0000000E+00
  -0.9867530E-01   0.1833693E+00  -0.7000000E-01   0.0000000E+00   0.0000000E+00   0.0000000E+00   0.0000000E+00
  -0.1048434E+00   0.1948317E+00  -0.5250000E-01   0.0000000E+00   0.0000000E+00   0.0000000E+00   0.0000000E+00
  -0.1110116E+00   0.2062941E+00  -0.3500000E-01   0.0000000E+00   0.0000000E+00   0.0000000E+00   0.0000000E+00
  -0.1171798E+00   0.2177566E+00  -0.1750000E-01   0.0000000E+00   0.0000000E+00   0.0000000E+00   0.0000000E+00
  -0.1233480E+00   0.2292190E+00   0.0000000E+00   0.0000000E+00   0.0000000E+00   0.0000000E+00   0.0000000E+00
  -0.1298314E+00   0.1628034E+00  -0.7000000E-01   0.0000000E+00   0.0000000E+00   0.0000000E+00   0.0000000E+00
  -0.1379472E+00   0.1729802E+00  -0.5250000E-01   0.0000000E+00   0.0000000E+00   0.0000000E+00   0.0000000E+00
  -0.1460629E+00   0.1831571E+00  -0.3500000E-01   0.0000000E+00   0.0000000E+00   0.0000000E+00   0.0000000E+00
  -0.1541786E+00   0.1933339E+00  -0.1750000E-01   0.0000000E+00   0.0000000E+00   0.0000000E+00   0.0000000E+00
  -0.1622944E+00   0.2035107E+00   0.0000000E+00   0.0000000E+00   0.0000000E+00   0.0000000E+00   0.0000000E+00
  -0.1147151E+00   0.1737860E+00  -0.7000000E-01   0.0000000E+00   0.0000000E+00   0.0000000E+00   0.0000000E+00
  -0.1218859E+00   0.1846493E+00  -0.5250000E-01   0.0000000E+00   0.0000000E+00   0.0000000E+00   0.0000000E+00
  -0.1290568E+00   0.1955127E+00  -0.3500000E-01   0.0000000E+00   0.0000000E+00   0.0000000E+00   0.0000000E+00
  -0.1362276E+00   0.2063760E+00  -0.1750000E-01   0.0000000E+00   0.0000000E+00   0.0000000E+00   0.0000000E+00
  -0.1433985E+00   0.2172394E+00   0.0000000E+00   0.0000000E+00   0.0000000E+00   0.0000000E+00   0.0000000E+00
  -0.1439023E+00   0.1505100E+00  -0.7000000E-01   0.0000000E+00   0.0000000E+00   0.0000000E+00   0.0000000E+00
  -0.1528976E+00   0.1599184E+00  -0.5250000E-01   0.0000000E+00   0.0000000E+00   0.0000000E+00   0.0000000E+00
  -0.1618930E+00   0.1693268E+00  -0.3500000E-01   0.0000000E+00   0.0000000E+00   0.0000000E+00   0.0000000E+00
  -0.1708883E+00   0.1787351E+00  -0.1750000E-01   0.0000000E+00   0.0000000E+00   0.0000000E+00   0.0000000E+00
  -0.1798836E+00   0.1881435E+00   0.0000000E+00   0.0000000E+00   0.0000000E+00   0.0000000E+00   0.0000000E+00
  -0.1298314E+00   0.1628034E+00  -0.7000000E-01   0.0000000E+00   0.0000000E+00   0.0000000E+00   0.0000000E+00
  -0.1379472E+00   0.1729802E+00  -0.5250000E-01   0.0000000E+00   0.0000000E+00   0.0000000E+00   0.0000000E+00
  -0.1460629E+00   0.1831571E+00  -0.3500000E-01   0.0000000E+00   0.0000000E+00   0.0000000E+00   0.0000000E+00
  -0.1541786E+00   0.1933339E+00  -0.1750000E-01   0.0000000E+00   0.0000000E+00   0.0000000E+00   0.0000000E+00
  -0.1622944E+00   0.2035107E+00   0.0000000E+00   0.0000000E+00   0.0000000E+00   0.0000000E+00   0.0000000E+00
  -0.1568146E+00   0.1370048E+00  -0.7000000E-01   0.0000000E+00   0.0000000E+00   0.0000000E+00   0.0000000E+00
  -0.1666171E+00   0.1455690E+00  -0.5250000E-01   0.0000000E+00   0.0000000E+00   0.0000000E+00   0.0000000E+00
  -0.1764196E+00   0.1541331E+00  -0.3500000E-01   0.0000000E+00   0.0000000E+00   0.0000000E+00   0.0000000E+00
  -0.1862220E+00   0.1626973E+00  -0.1750000E-01   0.0000000E+00   0.0000000E+00   0.0000000E+00   0.0000000E+00