VARIABLES="w (rad/s)"
"abs(F   1   1)" "angle(F   1   1)"
"abs(F   1   2)" "angle(F   1   2)"
"abs(F   1   3)" "angle(F   1   3)"
"abs(F   1   4)" "angle(F   1   4)"
"abs(F   1   5)" "angle(F   1   5)"
"abs(F   1   6)" "angle(F   1   6)"
Zone t="Diffraction force - beta =   0.000 deg",I=    25,F=POINT
  0.1300000E+01  0.5397862E+01 -0.3141496E+01  0.4941191E-05  0.1571141E+01  0.7044931E+02  0.1656951E+01  0.1360215E-05  0.1714930E+01  0.8186415E+00 -0.3141474E+01  0.1734259E-13 -0.2224540E+01
  0.6483333E+01  0.3708600E+02  0.4492110E+00  0.4226966E-04 -0.7806191E+00  0.9598071E+03  0.2188392E+01  0.1137983E-04  0.5124363E+00  0.1383812E+02  0.1977277E+00  0.4368041E-12 -0.1232970E+01
  0.1166667E+02  0.2955549E+03  0.8284358E+00  0.5920023E-05 -0.1980747E+01  0.2485311E+03  0.1547026E+01  0.9563087E-05  0.1946635E+01  0.6068206E+02  0.5553961E+00  0.4155850E-12 -0.1437901E+01
  0.1685000E+02  0.1145205E+03 -0.2490868E+01  0.2960369E-05 -0.2253742E+01  0.9147870E+02 -0.2857160E+01  0.2186984E-05  0.1362763E+01  0.1518821E+02 -0.2532580E+01  0.2500495E-12  0.2042784E+01
  0.2203333E+02  0.7214906E+02 -0.2087601E+01  0.2365638E-05 -0.2082484E+01  0.5359076E+02 -0.1126401E+01  0.3072695E-06  0.1897279E+01  0.9006069E+01 -0.1948581E+01  0.8281151E-12 -0.8899625E+00
  0.2721667E+02  0.4285815E+02 -0.2134778E+01  0.9010636E-06 -0.7373718E+00  0.2088411E+02 -0.1672333E+01  0.3992143E-06 -0.2596003E+01  0.5479301E+01 -0.2086428E+01  0.5981636E-12 -0.3891230E+00
  0.3240000E+02  0.6894258E+01  0.2359071E+01  0.7867698E-06  0.1099383E+00  0.1730834E+02  0.2650527E+01  0.3351562E-07  0.1794080E+01  0.9048582E+00  0.2360676E+01  0.5710302E-12  0.1794695E+01
  0.3758333E+02  0.1987655E+01 -0.1114975E+01  0.1354733E-06  0.3816034E+00  0.8948333E+01 -0.2509236E+01  0.2517259E-07 -0.2547933E+00  0.2568429E+00 -0.1124660E+01  0.1603947E-12 -0.9241112E+00
  0.4276666E+02  0.1527810E+02 -0.6638002E+00  0.1233293E-06  0.1010221E+01  0.1077278E+01  0.1554567E+01  0.6667464E-07 -0.1828109E+01  0.2043677E+01 -0.6687848E+00  0.4624895E-12 -0.7764016E+00
  0.4795000E+02  0.1229312E+02 -0.2994097E+00  0.4702992E-06 -0.1573148E+01  0.6747725E+01  0.1687934E+01  0.7254383E-07 -0.1306973E+01  0.1639554E+01 -0.3023466E+00  0.1870587E-12 -0.2207209E+00
  0.5313333E+02  0.5642827E+01 -0.3980520E+00  0.2755849E-05 -0.1143370E+01  0.1404390E+02  0.1164527E+01  0.5518131E-06  0.1555712E+01  0.7528871E+00 -0.4040960E+00  0.9853269E-13 -0.6406842E+00
  0.5831666E+02  0.1028535E+02  0.2940068E+01  0.1547183E-05  0.2062015E+01  0.2137308E+02  0.1378834E+01  0.3476254E-06  0.1390170E+01  0.1374040E+01  0.2939086E+01  0.1393851E-12 -0.7953621E-01
  0.6350000E+02  0.3174574E+01  0.3133746E+01  0.2249188E-06  0.3135317E+01  0.2934474E+01 -0.1547424E+01  0.1231842E-07 -0.3800128E+00  0.4242662E+00  0.3133766E+01  0.4368917E-13 -0.1900081E+01
  0.6868333E+02  0.7871091E+00  0.4465294E-02  0.8019299E-06  0.1573518E+01  0.9856436E+01  0.1568212E+01  0.2357141E-06  0.1592027E+01  0.1051742E+00  0.4481680E-02  0.6930374E-13 -0.2936303E+01
  0.7386666E+02  0.8984228E+00  0.2475092E-01  0.3529950E-06  0.1655190E+01  0.1126821E+00 -0.1544191E+01  0.2475843E-07 -0.1466058E+01  0.1201648E+00  0.2491355E-01  0.1052144E-12 -0.7419376E-04
  0.7905000E+02  0.1262565E+01  0.6470803E-02  0.6569117E-07 -0.1637412E+01  0.5617123E+00 -0.1567898E+01  0.2028594E-08 -0.2155442E+01  0.1689547E+00  0.6498945E-02  0.8057791E-13  0.3141162E+01
  0.8423333E+02  0.7911782E+00 -0.3134613E+01  0.6730635E-07  0.1478848E+01  0.6020977E+00  0.1577525E+01  0.7211634E-08  0.1863509E+01  0.1059273E+00 -0.3134584E+01  0.1074108E-12 -0.3037509E+01
  0.8941666E+02  0.1898497E+00 -0.3141296E+01  0.6684665E-08 -0.1681227E+01  0.2912921E-01 -0.1570489E+01  0.2081178E-08  0.1676531E+01  0.2543300E-01 -0.3141294E+01  0.3625210E-14  0.3737791E+00
  0.9460000E+02  0.3904131E+00 -0.3141358E+01  0.4855468E-08  0.2674489E+01  0.3405912E+00 -0.1570545E+01  0.3276133E-08 -0.1661004E+01  0.5232146E-01 -0.3141357E+01  0.7591957E-15  0.4784651E+00
  0.9978333E+02  0.2094771E+00  0.3141588E+01  0.1162604E-07  0.1387955E+01  0.1168895E+00  0.1570784E+01  0.3732421E-08 -0.1577436E+01  0.2807807E-01  0.3141588E+01  0.3144830E-15  0.1082786E+01
  0.1049667E+03  0.5379140E-01 -0.3141585E+01  0.4962456E-08  0.1638913E+01  0.5796987E-01  0.1570787E+01  0.4321866E-09  0.1565470E+01  0.7212279E-02 -0.3141585E+01  0.7471862E-15 -0.3109374E+01
  0.1101500E+03  0.1726303E-01  0.3141565E+01  0.8433870E-09 -0.1884485E+01  0.3067509E-01 -0.1570793E+01  0.9628024E-09  0.1583180E+01  0.2315180E-02  0.3141565E+01  0.2211884E-15  0.3112669E+01
  0.1153333E+03  0.3338257E-02  0.8671650E-05  0.9324488E-09  0.1519665E+01  0.9479471E-02  0.1570812E+01  0.4437770E-09 -0.1569491E+01  0.4477991E-03  0.8442750E-05  0.2456218E-15  0.8645872E-01
  0.1205167E+03  0.2584834E-02 -0.3141560E+01  0.1904808E-09  0.1378284E+01  0.1435982E-02  0.1570801E+01  0.8104020E-10 -0.1557425E+01  0.3467957E-03 -0.3141560E+01  0.1038179E-15  0.3295133E-01
  0.1257000E+03  0.1724771E-03 -0.3141565E+01  0.4089996E-11 -0.3126119E+01  0.9253767E-03  0.1570780E+01  0.1510982E-10 -0.1553168E+01  0.2314418E-04 -0.3141564E+01  0.1714912E-17  0.2221110E+00
