VARIABLES="w (rad/s)"
"abs(F   1   1)" "angle(F   1   1)"
"abs(F   1   2)" "angle(F   1   2)"
"abs(F   1   3)" "angle(F   1   3)"
"abs(F   1   4)" "angle(F   1   4)"
"abs(F   1   5)" "angle(F   1   5)"
"abs(F   1   6)" "angle(F   1   6)"
Zone t="Diffraction force - beta =   0.000 deg",I=    25,F=POINT
  0.1300000E+01  0.2673167E+02 -0.3141574E+01  0.5874556E-04  0.1570698E+01  0.1993338E+04 -0.1573837E+01  0.6911029E-05  0.1600553E+01  0.5014056E+01 -0.3141574E+01  0.2908861E-12 -0.1578048E+01
  0.6483333E+01  0.3728956E+03  0.3098390E+01  0.1193428E-03 -0.1258534E+01  0.8103165E+03 -0.2326645E+01  0.1137742E-04 -0.5561217E+00  0.6298195E+02  0.3098418E+01  0.4228224E-12 -0.1005517E+01
  0.1166667E+02  0.2234561E+03  0.1345059E+01  0.6445826E-05 -0.1903165E+01  0.2904979E+03  0.1550460E+01  0.5585086E-05  0.2233369E+01  0.3282236E+02  0.1345989E+01  0.1367309E-11  0.2774706E+01
  0.1685000E+02  0.1125850E+03 -0.2477713E+01  0.1395022E-05  0.2818207E+01  0.1358809E+03 -0.2273361E+01  0.2716573E-05  0.1465525E+01  0.1421024E+02 -0.2483729E+01  0.5460999E-12  0.2665580E+01
  0.2203333E+02  0.6463729E+02 -0.1327045E+01  0.1848221E-05 -0.2434296E+01  0.6940784E+02 -0.1232436E+01  0.3636510E-06  0.1768317E+01  0.8634202E+01 -0.1323247E+01  0.1339111E-11 -0.6145872E+00
  0.2721667E+02  0.3639645E+02 -0.1669069E+01  0.1196273E-05 -0.7264221E+00  0.3703346E+02 -0.1627989E+01  0.3706982E-06 -0.2702567E+01  0.4789097E+01 -0.1667137E+01  0.7261314E-12 -0.2961386E+01
  0.3240000E+02  0.2033853E+02  0.2900255E+01  0.6570457E-06 -0.4587231E-01  0.1540477E+02  0.3005827E+01  0.2082200E-06  0.1560208E+01  0.2666054E+01  0.2900345E+01  0.7790168E-12  0.2350719E+01
  0.3758333E+02  0.1007311E+02 -0.1781175E+00  0.3238499E-06 -0.1134162E+01  0.7450634E+01 -0.2891083E+01  0.3131893E-07 -0.5271553E+00  0.1310858E+01 -0.1776916E+00  0.1863852E-12 -0.1960623E+01
  0.4276666E+02  0.1258197E+02 -0.8452528E+00  0.8699592E-07  0.8100386E+00  0.4684940E+01  0.1567061E+01  0.7503797E-07 -0.1834858E+01  0.1697288E+01 -0.8428943E+00  0.3542218E-12 -0.1397615E+01
  0.4795000E+02  0.9382198E+01 -0.3967981E+00  0.3652225E-06 -0.1440859E+01  0.8049514E+01  0.1668923E+01  0.9362776E-07 -0.1345075E+01  0.1263760E+01 -0.3966187E+00  0.3225822E-12 -0.2823530E+00
  0.5313333E+02  0.5756125E+01 -0.3897894E+00  0.3347817E-05 -0.1223457E+01  0.1060219E+02  0.1019876E+01  0.4854901E-06  0.1560126E+01  0.7670740E+00 -0.3962001E+00  0.1117942E-12 -0.4111486E+00
  0.5831666E+02  0.1051399E+02  0.2944509E+01  0.1486537E-05  0.2075988E+01  0.1906985E+02  0.1355304E+01  0.3858005E-06  0.1415393E+01  0.1403512E+01  0.2943396E+01  0.1145170E-12 -0.3192688E+00
  0.6350000E+02  0.2553972E+01  0.3131839E+01  0.2281934E-06  0.3094576E+01  0.3208403E+01 -0.1549419E+01  0.1412749E-07 -0.5873660E+00  0.3443456E+00  0.3131949E+01  0.3423660E-13 -0.1568369E+01
  0.6868333E+02  0.2238466E+00  0.1571123E-01  0.8070492E-06  0.1570904E+01  0.9461880E+01  0.1568104E+01  0.2300568E-06  0.1589892E+01  0.3265371E-01  0.1444376E-01  0.6749675E-13 -0.2970934E+01
  0.7386666E+02  0.1051350E+01  0.2114865E-01  0.3568162E-06  0.1650029E+01  0.2563401E+00 -0.1559104E+01  0.2682292E-07 -0.1470875E+01  0.1398552E+00  0.2140397E-01  0.1013582E-12 -0.5267794E-01
  0.7905000E+02  0.1289901E+01  0.6333496E-02  0.8036704E-07 -0.1619432E+01  0.5470225E+00 -0.1567822E+01  0.2614097E-08 -0.2069616E+01  0.1724745E+00  0.6366146E-02  0.8083792E-13  0.3110944E+01
  0.8423333E+02  0.7709108E+00 -0.3134430E+01  0.6550700E-07  0.1476761E+01  0.5417924E+00  0.1578274E+01  0.6944714E-08  0.1863055E+01  0.1033178E+00 -0.3134408E+01  0.1164762E-12 -0.3035576E+01
  0.8941666E+02  0.1767879E+00 -0.3141273E+01  0.7753314E-08 -0.1681051E+01  0.4053155E-01 -0.1570581E+01  0.2167224E-08  0.1649564E+01  0.2375116E-01 -0.3141272E+01  0.3948633E-14  0.4252511E+00
  0.9460000E+02  0.3655184E+00 -0.3141342E+01  0.4688113E-08  0.2466124E+01  0.3482791E+00 -0.1570550E+01  0.3202896E-08 -0.1649392E+01  0.4911604E-01 -0.3141341E+01  0.7142607E-15  0.5970963E+00
  0.9978333E+02  0.2053314E+00  0.3141588E+01  0.1141000E-07  0.1382587E+01  0.1071828E+00  0.1570783E+01  0.3720396E-08 -0.1578405E+01  0.2754428E-01  0.3141588E+01  0.3010383E-15  0.1320402E+01
  0.1049667E+03  0.5264792E-01 -0.3141585E+01  0.4854603E-08  0.1650198E+01  0.5435333E-01  0.1570786E+01  0.3895488E-09  0.1568681E+01  0.7065046E-02 -0.3141585E+01  0.7787491E-15 -0.3098420E+01
  0.1101500E+03  0.1628943E-01  0.3141564E+01  0.8652223E-09 -0.1869977E+01  0.3046816E-01 -0.1570793E+01  0.9554525E-09  0.1581699E+01  0.2189820E-02  0.3141564E+01  0.2237172E-15  0.3128508E+01
  0.1153333E+03  0.3167361E-02  0.7806399E-05  0.9097240E-09  0.1518762E+01  0.9319497E-02  0.1570812E+01  0.4464213E-09 -0.1568194E+01  0.4257947E-03  0.7602183E-05  0.2442340E-15  0.8249608E-01
  0.1205167E+03  0.2532031E-02 -0.3141560E+01  0.1920867E-09  0.1388647E+01  0.1337505E-02  0.1570800E+01  0.7958392E-10 -0.1557002E+01  0.3399970E-03 -0.3141560E+01  0.9990805E-16  0.3152686E-01
  0.1257000E+03  0.1796908E-03 -0.3141568E+01  0.4585925E-11  0.3018737E+01  0.9056510E-03  0.1570780E+01  0.1487011E-10 -0.1552645E+01  0.2407302E-04 -0.3141567E+01  0.1609854E-17  0.2716686E+00
