VARIABLES="w (rad/s)"
"abs(F   1   1)" "angle(F   1   1)"
"abs(F   1   2)" "angle(F   1   2)"
"abs(F   1   3)" "angle(F   1   3)"
"abs(F   1   4)" "angle(F   1   4)"
"abs(F   1   5)" "angle(F   1   5)"
"abs(F   1   6)" "angle(F   1   6)"
Zone t="FKforce - beta =   0.000",I=    25,F=POINT
  0.1300000E+01  0.2133381E+02  0.3141592E+01  0.5380437E-04  0.1570657E+01  0.2063517E+04 -0.1570796E+01  0.5561868E-05  0.1572638E+01  0.4195414E+01  0.3141592E+01  0.2772401E-12 -0.1540357E+01
  0.6483333E+01  0.4059544E+03 -0.3141593E+01  0.8408749E-04 -0.1491845E+01  0.1372164E+04 -0.1570796E+01  0.1158846E-04 -0.1592818E+01  0.7649175E+02  0.3141593E+01  0.9853578E-13  0.5930026E+00
  0.1166667E+02  0.1497886E+03  0.3141593E+01  0.7113615E-06 -0.1202142E+01  0.4197697E+02  0.1570796E+01  0.4492852E-05 -0.1554212E+01  0.4424432E+02 -0.3141593E+01  0.1608377E-11  0.2545932E+01
  0.1685000E+02  0.2444829E+01  0.3158718E-05  0.2793501E-05  0.1374251E+01  0.7803244E+02 -0.1570796E+01  0.5857879E-06  0.1858541E+01  0.1213005E+01 -0.3035807E-05  0.3727210E-12  0.3067654E+01
  0.2203333E+02  0.5124907E+02  0.9789515E-07  0.8962805E-06  0.1849457E+01  0.1708690E+02 -0.1570797E+01  0.7095523E-07  0.1177646E+01  0.5437623E+01  0.1025930E-06  0.5870941E-12 -0.2209662E+00
  0.2721667E+02  0.1933903E+02  0.3081970E-06  0.2954284E-06 -0.6930197E+00  0.1619636E+02 -0.1570797E+01  0.4992096E-07  0.1456095E+01  0.2241086E+01  0.5292252E-06  0.1271508E-11  0.3065402E+01
  0.3240000E+02  0.1486012E+02  0.3141592E+01  0.1713265E-06 -0.2394231E+01  0.6077008E+01 -0.1570794E+01  0.1757885E-06  0.1516009E+01  0.1946154E+01  0.3141592E+01  0.4210466E-12 -0.3134655E+01
  0.3758333E+02  0.9038776E+01 -0.1104542E-05  0.3441009E-06 -0.1538169E+01  0.3441897E+01  0.1570801E+01  0.9792838E-08 -0.1290699E+01  0.1179394E+01 -0.1032818E-05  0.1732603E-12 -0.2882482E+01
  0.4276666E+02  0.3685227E+01  0.3141593E+01  0.4181660E-07 -0.1704872E+01  0.3607771E+01  0.1570792E+01  0.8376937E-08 -0.1888604E+01  0.4742059E+00  0.3141592E+01  0.2700657E-12 -0.3049451E+01
  0.4795000E+02  0.3092978E+01  0.3141586E+01  0.1185018E-06  0.1149795E+01  0.1309308E+01  0.1570792E+01  0.2131645E-07 -0.1475076E+01  0.3995273E+00  0.3141585E+01  0.1363662E-12 -0.3669436E+00
  0.5313333E+02  0.1226943E+00  0.3886383E-05  0.6399754E-06 -0.1575162E+01  0.3867228E+01 -0.1570794E+01  0.6636239E-07 -0.1618178E+01  0.1540377E-01  0.1185030E-04  0.2745334E-13  0.5443650E+00
  0.5831666E+02  0.2332612E+00  0.3141591E+01  0.6424141E-07 -0.1408807E+01  0.2351711E+01 -0.1570796E+01  0.3927668E-07  0.1640506E+01  0.3007366E-01  0.3141592E+01  0.3913305E-13 -0.2452930E+01
  0.6350000E+02  0.6206261E+00 -0.5762373E-06  0.9793035E-08  0.1885018E+01  0.2739972E+00 -0.1570788E+01  0.3275417E-08 -0.1472899E+01  0.7992359E-01 -0.1980953E-06  0.1588810E-13  0.4636514E+00
  0.6868333E+02  0.5632823E+00  0.3141589E+01  0.5534317E-08  0.1182477E+01  0.3945574E+00 -0.1570798E+01  0.5679123E-08 -0.1462969E+01  0.7252284E-01  0.3141589E+01  0.2979040E-14  0.1107149E+01
  0.7386666E+02  0.1529678E+00 -0.1003361E-04  0.4237582E-08  0.1205595E+01  0.1436803E+00 -0.1570800E+01  0.2068216E-08 -0.1528568E+01  0.1969564E-01 -0.9870893E-05  0.6661338E-14 -0.2214298E+01
  0.7905000E+02  0.2733624E-01 -0.8244737E-05  0.1473390E-07 -0.1539186E+01  0.1468980E-01  0.1570855E+01  0.6179426E-09 -0.1784357E+01  0.3519858E-02 -0.8285005E-05  0.2452563E-14  0.1661456E+01
  0.8423333E+02  0.2026792E-01  0.3565764E-04  0.1804672E-08 -0.1586924E+01  0.6030681E-01 -0.1570794E+01  0.2669394E-09 -0.1266285E+01  0.2609614E-02  0.3548739E-04  0.9068048E-14 -0.3012682E+01
  0.8941666E+02  0.1306181E-01 -0.1609624E-04  0.1068650E-08 -0.1679950E+01  0.1140235E-01 -0.1570817E+01  0.1033628E-09  0.1075663E+01  0.1681842E-02 -0.1616262E-04  0.3775167E-15  0.9420000E+00
  0.9460000E+02  0.2489468E-01 -0.6710509E-06  0.1006337E-08  0.8333460E+00  0.7687936E-02 -0.1570787E+01  0.8233094E-10  0.1011904E+01  0.3205415E-02 -0.6071970E-06  0.9819209E-16  0.2582993E+01
  0.9978333E+02  0.4145682E-02  0.2471137E-05  0.2247115E-09 -0.1477571E+01  0.9706676E-02 -0.1570802E+01  0.1255558E-10  0.1855315E+01  0.5337930E-03  0.2739765E-05  0.7416830E-16  0.2953371E+01
  0.1049667E+03  0.1143483E-02  0.2341575E-04  0.1212448E-09 -0.1971502E+01  0.3616539E-02 -0.1570795E+01  0.4265818E-10 -0.1605449E+01  0.1472334E-03  0.2372674E-04  0.3265015E-16 -0.2845047E+01
  0.1101500E+03  0.9736043E-03 -0.8672670E-05  0.2510704E-10 -0.1360968E+01  0.2069263E-03  0.1570858E+01  0.7485924E-11 -0.1368189E+01  0.1253602E-03 -0.8742338E-05  0.4336809E-17 -0.2214298E+01
  0.1153333E+03  0.1708957E-03 -0.3141568E+01  0.2273992E-10 -0.1585795E+01  0.1599732E-03 -0.1570791E+01  0.2706674E-11 -0.1353836E+01  0.2200438E-04 -0.3141568E+01  0.1693578E-17 -0.2446854E+01
  0.1205167E+03  0.5280248E-04  0.2809741E-04  0.2551036E-11  0.2273380E+01  0.9847769E-04 -0.1570779E+01  0.1456682E-11  0.1561041E+01  0.6798732E-05  0.2822635E-04  0.3912528E-17 -0.3072259E+01
  0.1257000E+03  0.7213719E-05  0.3141543E+01  0.7773545E-12  0.2206985E+01  0.1972575E-04 -0.1570802E+01  0.2398345E-12  0.1555983E+01  0.9288388E-06  0.3141543E+01  0.1334769E-18  0.2723368E+01
