 VARIABLES="Time (s)"
"AddedMass    1" "IRF    1"
"AddedMass    2" "IRF    2"
"AddedMass    3" "IRF    3"
"AddedMass    4" "IRF    4"
"AddedMass    5" "IRF    5"
"AddedMass    6" "IRF    6"
Zone t="DoF    1",I=   100,F=POINT
  0.0000000E+00  0.7738054E-01  0.1977682E+03  0.4728288E-09  0.3744805E-06 -0.1779548E-06  0.2782388E-03  0.1059772E-10  0.6864327E-07  0.1592513E-01  0.2787814E+02  0.5969287E-16 -0.6680697E-14
  0.1000000E+00  0.7738054E-01 -0.5037698E+02  0.4728288E-09  0.2126609E-06 -0.1779548E-06 -0.1582861E-04  0.1059772E-10  0.5081083E-07  0.1592513E-01 -0.5227479E+01  0.5969287E-16  0.2468544E-13
  0.2000000E+00  0.7738054E-01 -0.3831079E+02  0.4728288E-09 -0.1501364E-06 -0.1779548E-06 -0.2533223E-03  0.1059772E-10 -0.8644185E-07  0.1592513E-01 -0.5117413E+01  0.5969287E-16  0.3405607E-13
  0.3000000E+00  0.7738054E-01 -0.4988491E+02  0.4728288E-09 -0.5957582E-06 -0.1779548E-06  0.7658949E-04  0.1059772E-10 -0.5751497E-07  0.1592513E-01 -0.8069077E+01  0.5969287E-16  0.7334174E-13
  0.4000000E+00  0.7738054E-01 -0.7235001E+01  0.4728288E-09  0.5073358E-06 -0.1779548E-06  0.2386375E-03  0.1059772E-10  0.5499519E-07  0.1592513E-01 -0.2367971E+01  0.5969287E-16 -0.6565185E-13
  0.5000000E+00  0.7738054E-01  0.3053809E+02  0.4728288E-09 -0.2605861E-06 -0.1779548E-06 -0.1535769E-03  0.1059772E-10  0.2446162E-07  0.1592513E-01  0.3960624E+01  0.5969287E-16 -0.3149573E-14
  0.6000000E+00  0.7738054E-01 -0.3148450E+00  0.4728288E-09  0.1540303E-06 -0.1779548E-06 -0.1970037E-03  0.1059772E-10 -0.9298851E-08  0.1592513E-01  0.1305307E+00  0.5969287E-16 -0.1073313E-12
  0.7000000E+00  0.7738054E-01 -0.1227830E+02  0.4728288E-09 -0.9743431E-08 -0.1779548E-06  0.2109913E-03  0.1059772E-10  0.3584499E-08  0.1592513E-01 -0.2468538E+01  0.5969287E-16 -0.2604704E-13
  0.8000000E+00  0.7738054E-01 -0.4675997E+01  0.4728288E-09 -0.3422328E-07 -0.1779548E-06  0.1947250E-03  0.1059772E-10 -0.1549076E-07  0.1592513E-01 -0.1254526E+01  0.5969287E-16 -0.8304571E-13
  0.9000000E+00  0.7738054E-01 -0.1736626E+02  0.4728288E-09 -0.3364381E-06 -0.1779548E-06 -0.2349584E-03  0.1059772E-10 -0.8744010E-07  0.1592513E-01 -0.1335648E+01  0.5969287E-16  0.1196123E-12
  0.1000000E+01  0.7738054E-01  0.4070102E+02  0.4728288E-09  0.4416332E-06 -0.1779548E-06 -0.7232853E-04  0.1059772E-10  0.6300225E-07  0.1592513E-01  0.7371725E+01  0.5969287E-16  0.3392244E-13
  0.1100000E+01  0.7738054E-01  0.1794761E+03  0.4728288E-09  0.1592276E-06 -0.1779548E-06  0.2915754E-03  0.1059772E-10  0.7446389E-07  0.1592513E-01  0.2535371E+02  0.5969287E-16  0.8803913E-13
  0.1200000E+01  0.7738054E-01  0.2182367E+02  0.4728288E-09  0.7289114E-07 -0.1779548E-06  0.4634104E-04  0.1059772E-10  0.8275846E-08  0.1592513E-01  0.2944964E+01  0.5969287E-16 -0.2300779E-13
  0.1300000E+01  0.7738054E-01 -0.2473238E+03  0.4728288E-09 -0.1133150E-06 -0.1779548E-06 -0.3033689E-03  0.1059772E-10 -0.5379073E-07  0.1592513E-01 -0.3406725E+02  0.5969287E-16 -0.8405711E-13
  0.1400000E+01  0.7738054E-01 -0.3089336E+02  0.4728288E-09 -0.4731230E-06 -0.1779548E-06 -0.1697997E-04  0.1059772E-10 -0.9714917E-07  0.1592513E-01 -0.6078456E+01  0.5969287E-16 -0.8906375E-15
  0.1500000E+01  0.7738054E-01  0.6215442E+01  0.4728288E-09  0.5069817E-07 -0.1779548E-06  0.2704625E-03  0.1059772E-10  0.7145972E-07  0.1592513E-01 -0.4674539E+00  0.5969287E-16 -0.3211568E-13
  0.1600000E+01  0.7738054E-01  0.1412046E+02  0.4728288E-09  0.3897731E-06 -0.1779548E-06 -0.9297673E-04  0.1059772E-10  0.4614418E-07  0.1592513E-01  0.2233218E+01  0.5969287E-16  0.6796279E-13
  0.1700000E+01  0.7738054E-01  0.4019899E+02  0.4728288E-09 -0.2123384E-06 -0.1779548E-06 -0.2600786E-03  0.1059772E-10  0.3524821E-08  0.1592513E-01  0.6337664E+01  0.5969287E-16  0.2876615E-13
  0.1800000E+01  0.7738054E-01 -0.2210928E+01  0.4728288E-09  0.2162898E-07 -0.1779548E-06  0.1391360E-03  0.1059772E-10 -0.7930419E-08  0.1592513E-01 -0.2732397E+00  0.5969287E-16  0.1494734E-13
  0.1900000E+01  0.7738054E-01 -0.2961688E+02  0.4728288E-09  0.2121821E-06 -0.1779548E-06  0.2573566E-03  0.1059772E-10 -0.2975282E-07  0.1592513E-01 -0.4096450E+01  0.5969287E-16 -0.3840397E-13
  0.2000000E+01  0.7738054E-01  0.2391765E+02  0.4728288E-09 -0.4682092E-06 -0.1779548E-06 -0.1437876E-03  0.1059772E-10 -0.4941475E-07  0.1592513E-01  0.4332342E+01  0.5969287E-16 -0.1695619E-13
  0.2100000E+01  0.7738054E-01  0.4432345E+02  0.4728288E-09  0.4514598E-06 -0.1779548E-06 -0.1709734E-03  0.1059772E-10  0.1941625E-07  0.1592513E-01  0.7529597E+01  0.5969287E-16 -0.1952258E-14
  0.2200000E+01  0.7738054E-01  0.5794767E+02  0.4728288E-09  0.3006590E-06 -0.1779548E-06  0.2331767E-03  0.1059772E-10  0.1132060E-06  0.1592513E-01  0.8154262E+01  0.5969287E-16 -0.5997698E-14
  0.2300000E+01  0.7738054E-01  0.1249027E+03  0.4728288E-09 -0.2711143E-06 -0.1779548E-06  0.1377520E-03  0.1059772E-10 -0.3432094E-07  0.1592513E-01  0.1547329E+02  0.5969287E-16  0.4247908E-13
  0.2400000E+01  0.7738054E-01 -0.2062023E+03  0.4728288E-09 -0.3227302E-06 -0.1779548E-06 -0.2672056E-03  0.1059772E-10 -0.6570519E-07  0.1592513E-01 -0.2908080E+02  0.5969287E-16 -0.2066914E-13
  0.2500000E+01  0.7738054E-01 -0.8976619E+02  0.4728288E-09 -0.1515986E-06 -0.1779548E-06 -0.1134426E-03  0.1059772E-10 -0.5764720E-07  0.1592513E-01 -0.1367524E+02  0.5969287E-16 -0.8991356E-13
  0.2600000E+01  0.7738054E-01  0.3974933E+02  0.4728288E-09 -0.8046410E-08 -0.1779548E-06  0.2514580E-03  0.1059772E-10  0.4316578E-07  0.1592513E-01  0.4889929E+01  0.5969287E-16 -0.2041030E-13
  0.2700000E+01  0.7738054E-01  0.5238634E+02  0.4728288E-09  0.5810251E-06 -0.1779548E-06  0.3871025E-04  0.1059772E-10  0.9106913E-07  0.1592513E-01  0.8148232E+01  0.5969287E-16 -0.4965208E-13
  0.2800000E+01  0.7738054E-01  0.3115707E+01  0.4728288E-09 -0.3035683E-06 -0.1779548E-06 -0.2870740E-03  0.1059772E-10 -0.4126952E-07  0.1592513E-01  0.2028664E+01  0.5969287E-16  0.1537975E-12
  0.2900000E+01  0.7738054E-01 -0.4388257E+01  0.4728288E-09  0.1344697E-06 -0.1779548E-06  0.4229352E-04  0.1059772E-10 -0.1406937E-07  0.1592513E-01 -0.1379690E+00  0.5969287E-16  0.3468089E-13
  0.3000000E+01  0.7738054E-01  0.1120705E+01  0.4728288E-09 -0.1431380E-06 -0.1779548E-06  0.2535413E-03  0.1059772E-10  0.8811401E-08  0.1592513E-01 -0.1366502E+00  0.5969287E-16  0.1031311E-12
  0.3100000E+01  0.7738054E-01 -0.1026590E+02  0.4728288E-09  0.1660747E-06 -0.1779548E-06 -0.9521435E-04  0.1059772E-10 -0.2242879E-07  0.1592513E-01 -0.7841167E+00  0.5969287E-16 -0.4240976E-13
  0.3200000E+01  0.7738054E-01  0.1924441E+02  0.4728288E-09 -0.2798391E-06 -0.1779548E-06 -0.2351813E-03  0.1059772E-10 -0.8701842E-08  0.1592513E-01  0.3394057E+01  0.5969287E-16  0.1633464E-13
  0.3300000E+01  0.7738054E-01  0.3238247E+02  0.4728288E-09  0.5843619E-06 -0.1779548E-06  0.1696273E-03  0.1059772E-10  0.8527181E-07  0.1592513E-01  0.3739357E+01  0.5969287E-16 -0.1519191E-12
  0.3400000E+01  0.7738054E-01 -0.2275351E+02  0.4728288E-09 -0.3678709E-06 -0.1779548E-06  0.1682433E-03  0.1059772E-10 -0.1462693E-07  0.1592513E-01 -0.4842079E+01  0.5969287E-16 -0.2235472E-13
  0.3500000E+01  0.7738054E-01 -0.6661770E+02  0.4728288E-09 -0.3116573E-06 -0.1779548E-06 -0.2205496E-03  0.1059772E-10 -0.9407119E-07  0.1592513E-01 -0.1052103E+02  0.5969287E-16 -0.2439001E-13
  0.3600000E+01  0.7738054E-01 -0.8970547E+02  0.4728288E-09 -0.1702387E-06 -0.1779548E-06 -0.1422266E-03  0.1059772E-10 -0.2179614E-07  0.1592513E-01 -0.1215801E+02  0.5969287E-16  0.4114454E-13
  0.3700000E+01  0.7738054E-01  0.2044842E+03  0.4728288E-09  0.1646473E-06 -0.1779548E-06  0.2509298E-03  0.1059772E-10  0.3712784E-07  0.1592513E-01  0.2792469E+02  0.5969287E-16  0.1484122E-13
  0.3800000E+01  0.7738054E-01  0.1186841E+02  0.4728288E-09  0.4542589E-06 -0.1779548E-06  0.1066893E-03  0.1059772E-10  0.1063881E-06  0.1592513E-01  0.3436122E+01  0.5969287E-16 -0.2351141E-13
  0.3900000E+01  0.7738054E-01  0.8232553E+00  0.4728288E-09  0.1801603E-06 -0.1779548E-06 -0.2560975E-03  0.1059772E-10 -0.3938436E-07  0.1592513E-01  0.1655321E+01  0.5969287E-16 -0.5631295E-14
  0.4000000E+01  0.7738054E-01 -0.3236429E+02  0.4728288E-09 -0.6201768E-06 -0.1779548E-06 -0.4230796E-04  0.1059772E-10 -0.6863056E-07  0.1592513E-01 -0.4288135E+01  0.5969287E-16  0.4766222E-13
  0.4100000E+01  0.7738054E-01 -0.4362668E+02  0.4728288E-09  0.3765327E-06 -0.1779548E-06  0.2546244E-03  0.1059772E-10  0.7855292E-08  0.1592513E-01 -0.6803054E+01  0.5969287E-16  0.1068228E-13
  0.4200000E+01  0.7738054E-01  0.9518559E+01  0.4728288E-09 -0.1832426E-06 -0.1779548E-06 -0.5490420E-04  0.1059772E-10  0.2571445E-07  0.1592513E-01  0.9990287E+00  0.5969287E-16  0.6752985E-13
  0.4300000E+01  0.7738054E-01  0.1041108E+02  0.4728288E-09 -0.5555448E-07 -0.1779548E-06 -0.2938256E-03  0.1059772E-10  0.1384101E-07  0.1592513E-01  0.1665886E+01  0.5969287E-16 -0.4154215E-14
  0.4400000E+01  0.7738054E-01 -0.2535073E+02  0.4728288E-09  0.2090358E-06 -0.1779548E-06  0.5859275E-04  0.1059772E-10  0.2693764E-07  0.1592513E-01 -0.4232800E+01  0.5969287E-16  0.6683819E-14
  0.4500000E+01  0.7738054E-01 -0.2487131E+02  0.4728288E-09 -0.1248267E-06 -0.1779548E-06  0.2482769E-03  0.1059772E-10  0.1280344E-07  0.1592513E-01 -0.5019262E+01  0.5969287E-16 -0.1169815E-12
  0.4600000E+01  0.7738054E-01 -0.6109818E+02  0.4728288E-09 -0.4530028E-06 -0.1779548E-06 -0.1699501E-03  0.1059772E-10 -0.1145560E-06  0.1592513E-01 -0.8927258E+01  0.5969287E-16 -0.7094531E-15
  0.4700000E+01  0.7738054E-01 -0.9543130E+02  0.4728288E-09  0.2052741E-06 -0.1779548E-06 -0.2153509E-03  0.1059772E-10  0.6248415E-08  0.1592513E-01 -0.1185356E+02  0.5969287E-16 -0.3681617E-13
  0.4800000E+01  0.7738054E-01  0.1970623E+03  0.4728288E-09  0.2137944E-06 -0.1779548E-06  0.2247489E-03  0.1059772E-10  0.6155478E-07  0.1592513E-01  0.2800470E+02  0.5969287E-16  0.7674918E-13
  0.4900000E+01  0.7738054E-01  0.1861928E+03  0.4728288E-09  0.1961562E-06 -0.1779548E-06  0.2095259E-03  0.1059772E-10  0.6006338E-07  0.1592513E-01  0.2654849E+02  0.5969287E-16  0.8235974E-13
  0.5000000E+01  0.7738054E-01 -0.9026614E+02  0.4728288E-09  0.1747175E-06 -0.1779548E-06 -0.2269831E-03  0.1059772E-10 -0.1602405E-08  0.1592513E-01 -0.1127006E+02  0.5969287E-16 -0.3184244E-13
  0.5100000E+01  0.7738054E-01 -0.6079622E+02  0.4728288E-09 -0.4787933E-06 -0.1779548E-06 -0.1514015E-03  0.1059772E-10 -0.1127605E-06  0.1592513E-01 -0.8988355E+01  0.5969287E-16  0.1724983E-14
  0.5200000E+01  0.7738054E-01 -0.2096054E+02  0.4728288E-09 -0.5878536E-07 -0.1779548E-06  0.2592218E-03  0.1059772E-10  0.1877526E-07  0.1592513E-01 -0.4509185E+01  0.5969287E-16 -0.1311523E-12
  0.5300000E+01  0.7738054E-01 -0.2249411E+02  0.4728288E-09  0.1604675E-06 -0.1779548E-06  0.4066778E-04  0.1059772E-10  0.2420389E-07  0.1592513E-01 -0.3781685E+01  0.5969287E-16  0.1377271E-14
  0.5400000E+01  0.7738054E-01  0.8086290E+01  0.4728288E-09 -0.2769805E-07 -0.1779548E-06 -0.2935133E-03  0.1059772E-10  0.1034855E-07  0.1592513E-01  0.1378991E+01  0.5969287E-16 -0.1606317E-13
  0.5500000E+01  0.7738054E-01  0.1023969E+02  0.4728288E-09 -0.1929683E-06 -0.1779548E-06 -0.3212588E-04  0.1059772E-10  0.2661153E-07  0.1592513E-01  0.1055333E+01  0.5969287E-16  0.7294501E-13
  0.5600000E+01  0.7738054E-01 -0.4166034E+02  0.4728288E-09  0.3809690E-06 -0.1779548E-06  0.2524924E-03  0.1059772E-10  0.8389581E-08  0.1592513E-01 -0.6506875E+01  0.5969287E-16  0.1333350E-13
  0.5700000E+01  0.7738054E-01 -0.3307164E+02  0.4728288E-09 -0.6346778E-06 -0.1779548E-06 -0.6679555E-04  0.1059772E-10 -0.7160673E-07  0.1592513E-01 -0.4269543E+01  0.5969287E-16  0.6728291E-13
  0.5800000E+01  0.7738054E-01  0.4307247E+01  0.4728288E-09  0.2214791E-06 -0.1779548E-06 -0.2464421E-03  0.1059772E-10 -0.3097144E-07  0.1592513E-01  0.2183161E+01  0.5969287E-16 -0.5856490E-14
  0.5900000E+01  0.7738054E-01  0.1490722E+02  0.4728288E-09  0.4421928E-06 -0.1779548E-06  0.1262001E-03  0.1059772E-10  0.1066730E-06  0.1592513E-01  0.3798808E+01  0.5969287E-16 -0.2227884E-13
  0.6000000E+01  0.7738054E-01  0.1887334E+03  0.4728288E-09  0.1633127E-06 -0.1779548E-06  0.2354296E-03  0.1059772E-10  0.3329995E-07  0.1592513E-01  0.2570859E+02  0.5969287E-16  0.3429472E-14
  0.6100000E+01  0.7738054E-01 -0.1074880E+03  0.4728288E-09 -0.1849314E-06 -0.1779548E-06 -0.1622228E-03  0.1059772E-10 -0.2553042E-07  0.1592513E-01 -0.1462525E+02  0.5969287E-16  0.3728597E-13
  0.6200000E+01  0.7738054E-01 -0.5256190E+02  0.4728288E-09 -0.3382915E-06 -0.1779548E-06 -0.2032557E-03  0.1059772E-10 -0.9651056E-07  0.1592513E-01 -0.8705177E+01  0.5969287E-16 -0.1530924E-13
  0.6300000E+01  0.7738054E-01 -0.1783006E+02  0.4728288E-09 -0.3399437E-06 -0.1779548E-06  0.1858740E-03  0.1059772E-10 -0.4785195E-08  0.1592513E-01 -0.4138746E+01  0.5969287E-16 -0.1883282E-13
  0.6400000E+01  0.7738054E-01  0.3478297E+02  0.4728288E-09  0.6115035E-06 -0.1779548E-06  0.1519200E-03  0.1059772E-10  0.8413529E-07  0.1592513E-01  0.4174065E+01  0.5969287E-16 -0.1453464E-12
  0.6500000E+01  0.7738054E-01  0.2281159E+02  0.4728288E-09 -0.3154991E-06 -0.1779548E-06 -0.2406961E-03  0.1059772E-10 -0.1138720E-07  0.1592513E-01  0.3925378E+01  0.5969287E-16  0.8951575E-14
  0.6600000E+01  0.7738054E-01 -0.1198844E+02  0.4728288E-09  0.1809873E-06 -0.1779548E-06 -0.6957029E-04  0.1059772E-10 -0.2477649E-07  0.1592513E-01 -0.1052085E+01  0.5969287E-16 -0.5026672E-13
  0.6700000E+01  0.7738054E-01  0.6005680E+00  0.4728288E-09 -0.1247245E-06 -0.1779548E-06  0.2627154E-03  0.1059772E-10  0.6700015E-08  0.1592513E-01 -0.2051682E+00  0.5969287E-16  0.9461405E-13
  0.6800000E+01  0.7738054E-01  0.8135535E+00  0.4728288E-09  0.9667964E-07 -0.1779548E-06  0.2185771E-04  0.1059772E-10 -0.1403342E-07  0.1592513E-01  0.6318070E+00  0.5969287E-16  0.3379295E-13
  0.6900000E+01  0.7738054E-01  0.5146315E+01  0.4728288E-09 -0.2485656E-06 -0.1779548E-06 -0.2877539E-03  0.1059772E-10 -0.3673008E-07  0.1592513E-01  0.2319935E+01  0.5969287E-16  0.1576620E-12
  0.7000000E+01  0.7738054E-01  0.5309182E+02  0.4728288E-09  0.5692815E-06 -0.1779548E-06  0.6211539E-04  0.1059772E-10  0.9604971E-07  0.1592513E-01  0.8154021E+01  0.5969287E-16 -0.4413961E-13
  0.7100000E+01  0.7738054E-01  0.4211867E+02  0.4728288E-09 -0.4495802E-07 -0.1779548E-06  0.2471836E-03  0.1059772E-10  0.3417620E-07  0.1592513E-01  0.5087804E+01  0.5969287E-16 -0.1511931E-13
  0.7200000E+01  0.7738054E-01 -0.1126765E+03  0.4728288E-09 -0.1564468E-06 -0.1779548E-06 -0.1366271E-03  0.1059772E-10 -0.5969578E-07  0.1592513E-01 -0.1677460E+02  0.5969287E-16 -0.9464727E-13
  0.7300000E+01  0.7738054E-01 -0.2046042E+03  0.4728288E-09 -0.3065184E-06 -0.1779548E-06 -0.2600962E-03  0.1059772E-10 -0.6445090E-07  0.1592513E-01 -0.2887621E+02  0.5969287E-16 -0.2761659E-13
  0.7400000E+01  0.7738054E-01  0.1304113E+03  0.4728288E-09 -0.2605890E-06 -0.1779548E-06  0.1584135E-03  0.1059772E-10 -0.2840645E-07  0.1592513E-01  0.1630529E+02  0.5969287E-16  0.4786242E-13
  0.7500000E+01  0.7738054E-01  0.6052923E+02  0.4728288E-09  0.3329570E-06 -0.1779548E-06  0.2234719E-03  0.1059772E-10  0.1158195E-06  0.1592513E-01  0.8615061E+01  0.5969287E-16 -0.1847154E-14
  0.7600000E+01  0.7738054E-01  0.4181290E+02  0.4728288E-09  0.4044699E-06 -0.1779548E-06 -0.1876909E-03  0.1059772E-10  0.1207150E-07  0.1592513E-01  0.7239344E+01  0.5969287E-16  0.1625278E-13
  0.7700000E+01  0.7738054E-01  0.2471115E+02  0.4728288E-09 -0.4427236E-06 -0.1779548E-06 -0.1247009E-03  0.1059772E-10 -0.4748534E-07  0.1592513E-01  0.4377689E+01  0.5969287E-16 -0.2215780E-13
  0.7800000E+01  0.7738054E-01 -0.2784202E+02  0.4728288E-09  0.1952665E-06 -0.1779548E-06  0.2706185E-03  0.1059772E-10 -0.2839214E-07  0.1592513E-01 -0.3907639E+01  0.5969287E-16 -0.3806026E-13
  0.7900000E+01  0.7738054E-01 -0.2749494E+01  0.4728288E-09  0.4993402E-07 -0.1779548E-06  0.1226396E-03  0.1059772E-10 -0.1055717E-07  0.1592513E-01 -0.3113755E+00  0.5969287E-16 -0.1055235E-14
  0.8000000E+01  0.7738054E-01  0.4265226E+02  0.4728288E-09 -0.2432013E-06 -0.1779548E-06 -0.2644056E-03  0.1059772E-10  0.3646601E-08  0.1592513E-01  0.6658267E+01  0.5969287E-16  0.2367728E-13
  0.8100000E+01  0.7738054E-01  0.1595480E+02  0.4728288E-09  0.4380457E-06 -0.1779548E-06 -0.6811538E-04  0.1059772E-10  0.5081275E-07  0.1592513E-01  0.2379678E+01  0.5969287E-16  0.5423747E-13
  0.8200000E+01  0.7738054E-01  0.3431702E+01  0.4728288E-09 -0.7186724E-09 -0.1779548E-06  0.2718460E-03  0.1059772E-10  0.6552527E-07  0.1592513E-01 -0.9177130E+00  0.5969287E-16 -0.2197604E-13
  0.8300000E+01  0.7738054E-01 -0.2975947E+02  0.4728288E-09 -0.4763752E-06 -0.1779548E-06 -0.3632557E-04  0.1059772E-10 -0.1017004E-06  0.1592513E-01 -0.5909142E+01  0.5969287E-16  0.4648501E-14
  0.8400001E+01  0.7738054E-01 -0.2463467E+03  0.4728288E-09 -0.1088674E-06 -0.1779548E-06 -0.2977713E-03  0.1059772E-10 -0.4947280E-07  0.1592513E-01 -0.3382682E+02  0.5969287E-16 -0.7590427E-13
  0.8500000E+01  0.7738054E-01  0.3523657E+02  0.4728288E-09  0.1011889E-06 -0.1779548E-06  0.6719288E-04  0.1059772E-10  0.1265548E-07  0.1592513E-01  0.4806530E+01  0.5969287E-16 -0.2685238E-13
  0.8600000E+01  0.7738054E-01  0.1633495E+03  0.4728288E-09  0.1819447E-06 -0.1779548E-06  0.2825065E-03  0.1059772E-10  0.7826945E-07  0.1592513E-01  0.2328248E+02  0.5969287E-16  0.8262445E-13
  0.8700000E+01  0.7738054E-01  0.3768363E+02  0.4728288E-09  0.4263105E-06 -0.1779548E-06 -0.9198384E-04  0.1059772E-10  0.5400386E-07  0.1592513E-01  0.6947556E+01  0.5969287E-16  0.3579986E-13
  0.8800000E+01  0.7738054E-01 -0.2093575E+02  0.4728288E-09 -0.3877577E-06 -0.1779548E-06 -0.2237451E-03  0.1059772E-10 -0.8935562E-07  0.1592513E-01 -0.1913795E+01  0.5969287E-16  0.1289964E-12
  0.8900001E+01  0.7738054E-01 -0.5799238E+01  0.4728288E-09  0.2405289E-07 -0.1779548E-06  0.2087717E-03  0.1059772E-10 -0.1005814E-07  0.1592513E-01 -0.1478957E+01  0.5969287E-16 -0.7843576E-13
  0.9000000E+01  0.7738054E-01 -0.7782500E+01  0.4728288E-09 -0.3999478E-07 -0.1779548E-06  0.1923855E-03  0.1059772E-10  0.6648009E-08  0.1592513E-01 -0.1844243E+01  0.5969287E-16 -0.1981435E-13
  0.9100000E+01  0.7738054E-01 -0.4580285E+00  0.4728288E-09  0.1656501E-06 -0.1779548E-06 -0.2092492E-03  0.1059772E-10 -0.1023593E-07  0.1592513E-01  0.1295423E+00  0.5969287E-16 -0.1146167E-12
  0.9200000E+01  0.7738054E-01  0.2759696E+02  0.4728288E-09 -0.2516122E-06 -0.1779548E-06 -0.1310060E-03  0.1059772E-10  0.2294216E-07  0.1592513E-01  0.3497833E+01  0.5969287E-16 -0.1035270E-13
  0.9300000E+01  0.7738054E-01 -0.6153445E+01  0.4728288E-09  0.4860468E-06 -0.1779548E-06  0.2523652E-03  0.1059772E-10  0.5280836E-07  0.1592513E-01 -0.2266609E+01  0.5969287E-16 -0.8041794E-13
  0.9400001E+01  0.7738054E-01 -0.5033614E+02  0.4728288E-09 -0.6062740E-06 -0.1779548E-06  0.5489487E-04  0.1059772E-10 -0.6456838E-07  0.1592513E-01 -0.8054715E+01  0.5969287E-16  0.7746389E-13
  0.9500000E+01  0.7738054E-01 -0.3497243E+02  0.4728288E-09 -0.1156159E-06 -0.1779548E-06 -0.2544018E-03  0.1059772E-10 -0.7885200E-07  0.1592513E-01 -0.4546563E+01  0.5969287E-16  0.3597522E-13
  0.9600000E+01  0.7738054E-01 -0.2764694E+02  0.4728288E-09  0.2084691E-06 -0.1779548E-06  0.1050539E-04  0.1059772E-10  0.5442103E-07  0.1592513E-01 -0.2117991E+01  0.5969287E-16  0.3711080E-13
  0.9700000E+01  0.7738054E-01  0.1975457E+03  0.4728288E-09  0.3729505E-06 -0.1779548E-06  0.2775067E-03  0.1059772E-10  0.6847677E-07  0.1592513E-01  0.2784783E+02  0.5969287E-16 -0.6167362E-14
  0.9800000E+01  0.7738054E-01 -0.7166759E+02  0.4728288E-09  0.2160976E-06 -0.1779548E-06 -0.4195410E-04  0.1059772E-10  0.4683392E-07  0.1592513E-01 -0.8151329E+01  0.5969287E-16  0.1215751E-13
  0.9900001E+01  0.7738054E-01 -0.4189071E+02  0.4728288E-09 -0.1840578E-06 -0.1779548E-06 -0.2508558E-03  0.1059772E-10 -0.9341115E-07  0.1592513E-01 -0.5720331E+01  0.5969287E-16  0.3127801E-13
Zone t="DoF    2",I=   100,F=POINT
  0.0000000E+00 -0.8842397E-09  0.2549827E-05  0.7738048E-01  0.1977680E+03 -0.6992169E-07  0.2671921E-04 -0.1592523E-01 -0.2787804E+02 -0.5699006E-10  0.1692629E-07 -0.8046609E-10  0.6779629E-07
  0.1000000E+00 -0.8842397E-09 -0.7121096E-07  0.7738048E-01 -0.5037693E+02 -0.6992169E-07 -0.3577829E-04 -0.1592523E-01  0.5227482E+01 -0.5699006E-10 -0.6401013E-07 -0.8046609E-10 -0.4627741E-07
  0.2000000E+00 -0.8842397E-09 -0.1439288E-05  0.7738048E-01 -0.3831049E+02 -0.6992169E-07  0.1901085E-04 -0.1592523E-01  0.5117317E+01 -0.5699006E-10  0.2094438E-07 -0.8046609E-10 -0.1908668E-08
  0.3000000E+00 -0.8842397E-09 -0.1450692E-06  0.7738048E-01 -0.4988506E+02 -0.6992169E-07 -0.5559233E-05 -0.1592523E-01  0.8069083E+01 -0.5699006E-10 -0.2824359E-07 -0.8046609E-10 -0.6722497E-09
  0.4000000E+00 -0.8842397E-09  0.1063522E-05  0.7738048E-01 -0.7235326E+01 -0.6992169E-07  0.6211067E-05 -0.1592523E-01  0.2368033E+01 -0.5699006E-10 -0.6572812E-07 -0.8046609E-10  0.5450607E-08
  0.5000000E+00 -0.8842397E-09  0.3792441E-06  0.7738048E-01  0.3053823E+02 -0.6992169E-07  0.2168022E-04 -0.1592523E-01 -0.3960638E+01 -0.5699006E-10  0.1015698E-06 -0.8046609E-10  0.9220271E-08
  0.6000000E+00 -0.8842397E-09 -0.4608525E-06  0.7738048E-01 -0.3145594E+00 -0.6992169E-07 -0.7730654E-05 -0.1592523E-01 -0.1305560E+00 -0.5699006E-10  0.1377136E-06 -0.8046609E-10 -0.1935434E-08
  0.7000000E+00 -0.8842397E-09  0.1091262E-06  0.7738048E-01 -0.1227861E+02 -0.6992169E-07  0.3313623E-04 -0.1592523E-01  0.2468578E+01 -0.5699006E-10 -0.1052881E-07 -0.8046609E-10  0.5831276E-08
  0.8000000E+00 -0.8842397E-09 -0.1176324E-05  0.7738048E-01 -0.4676187E+01 -0.6992169E-07 -0.4527042E-04 -0.1592523E-01  0.1254539E+01 -0.5699006E-10 -0.1224786E-06 -0.8046609E-10  0.4346996E-08
  0.9000000E+00 -0.8842397E-09 -0.1091636E-05  0.7738048E-01 -0.1736592E+02 -0.6992169E-07  0.2071679E-04 -0.1592523E-01  0.1335560E+01 -0.5699006E-10  0.4403565E-07 -0.8046609E-10 -0.1015559E-07
  0.1000000E+01 -0.8842397E-09 -0.2332479E-06  0.7738048E-01  0.4070116E+02 -0.6992169E-07 -0.3769900E-04 -0.1592523E-01 -0.7371739E+01 -0.5699006E-10  0.1695764E-07 -0.8046609E-10 -0.9485335E-08
  0.1100000E+01 -0.8842397E-09  0.1749427E-05  0.7738048E-01  0.1794758E+03 -0.6992169E-07 -0.3992906E-04 -0.1592523E-01 -0.2535361E+02 -0.5699006E-10 -0.3493705E-07 -0.8046609E-10  0.2820837E-07
  0.1200000E+01 -0.8842397E-09  0.6823946E-06  0.7738048E-01  0.2182362E+02 -0.6992169E-07  0.2228669E-04 -0.1592523E-01 -0.2944943E+01 -0.5699006E-10  0.5321941E-08 -0.8046609E-10  0.1648079E-07
  0.1300000E+01 -0.8842397E-09 -0.1664805E-05  0.7738048E-01 -0.2473236E+03 -0.6992169E-07  0.2851974E-04 -0.1592523E-01  0.3406715E+02 -0.5699006E-10 -0.1661991E-07 -0.8046609E-10 -0.6284073E-07
  0.1400000E+01 -0.8842397E-09 -0.7655736E-07  0.7738048E-01 -0.3089340E+02 -0.6992169E-07  0.4328653E-04 -0.1592523E-01  0.6078441E+01 -0.5699006E-10 -0.6091996E-08 -0.8046609E-10  0.1702035E-07
  0.1500000E+01 -0.8842397E-09  0.1377261E-05  0.7738048E-01  0.6215071E+01 -0.6992169E-07 -0.3074899E-04 -0.1592523E-01  0.4675467E+00 -0.5699006E-10 -0.4498745E-07 -0.8046609E-10  0.8264527E-08
  0.1600000E+01 -0.8842397E-09  0.1633516E-05  0.7738048E-01  0.1412055E+02 -0.6992169E-07  0.4213503E-04 -0.1592523E-01 -0.2233210E+01 -0.5699006E-10  0.7781599E-07 -0.8046609E-10 -0.2897290E-08
  0.1700000E+01 -0.8842397E-09 -0.3673339E-06  0.7738048E-01  0.4019935E+02 -0.6992169E-07 -0.2797237E-04 -0.1592523E-01 -0.6337715E+01 -0.5699006E-10  0.4085564E-07 -0.8046609E-10  0.1311381E-08
  0.1800000E+01 -0.8842397E-09 -0.3090382E-06  0.7738048E-01 -0.2211099E+01 -0.6992169E-07  0.9834610E-06 -0.1592523E-01  0.2732548E+00 -0.5699006E-10 -0.5982230E-07 -0.8046609E-10  0.4388410E-09
  0.1900000E+01 -0.8842397E-09 -0.7187634E-06  0.7738048E-01 -0.2961716E+02 -0.6992169E-07 -0.2024186E-05 -0.1592523E-01  0.4096479E+01 -0.5699006E-10 -0.7516862E-07 -0.8046609E-10 -0.4542524E-08
  0.2000000E+01 -0.8842397E-09 -0.1795523E-05  0.7738048E-01  0.2391790E+02 -0.6992169E-07 -0.3675953E-04 -0.1592523E-01 -0.4332398E+01 -0.5699006E-10  0.1641597E-07 -0.8046609E-10  0.5352070E-09
  0.2100000E+01 -0.8842397E-09 -0.8529042E-07  0.7738048E-01  0.4432372E+02 -0.6992169E-07  0.2181942E-04 -0.1592523E-01 -0.7529637E+01 -0.5699006E-10  0.6816386E-07 -0.8046609E-10 -0.2776148E-08
  0.2200000E+01 -0.8842397E-09  0.1320726E-05  0.7738048E-01  0.5794743E+02 -0.6992169E-07 -0.4069730E-04 -0.1592523E-01 -0.8154175E+01 -0.5699006E-10 -0.2877748E-08 -0.8046609E-10  0.2561499E-08
  0.2300000E+01 -0.8842397E-09  0.6933660E-06  0.7738048E-01  0.1249025E+03 -0.6992169E-07  0.1456216E-04 -0.1592523E-01 -0.1547326E+02 -0.5699006E-10  0.3628065E-07 -0.8046609E-10  0.5596718E-07
  0.2400000E+01 -0.8842397E-09 -0.2065847E-05  0.7738048E-01 -0.2062022E+03 -0.6992169E-07 -0.2560568E-05 -0.1592523E-01  0.2908070E+02 -0.5699006E-10 -0.1869830E-07 -0.8046609E-10 -0.6031271E-07
  0.2500000E+01 -0.8842397E-09 -0.3079743E-06  0.7738048E-01 -0.8976613E+02 -0.6992169E-07  0.5712144E-04 -0.1592523E-01  0.1367521E+02 -0.5699006E-10  0.4248566E-07 -0.8046609E-10  0.8840871E-08
  0.2600000E+01 -0.8842397E-09  0.1670998E-05  0.7738048E-01  0.3974905E+02 -0.6992169E-07  0.2670344E-06 -0.1592523E-01 -0.4889835E+01 -0.5699006E-10 -0.3952523E-07 -0.8046609E-10  0.9273080E-08
  0.2700000E+01 -0.8842397E-09  0.8086973E-06  0.7738048E-01  0.5238632E+02 -0.6992169E-07 -0.2130114E-04 -0.1592523E-01 -0.8148195E+01 -0.5699006E-10 -0.5600417E-08 -0.8046609E-10  0.1346068E-08
  0.2800000E+01 -0.8842397E-09 -0.6132385E-07  0.7738048E-01  0.3116072E+01 -0.6992169E-07  0.1935491E-04 -0.1592523E-01 -0.2028727E+01 -0.5699006E-10  0.8406958E-07 -0.8046609E-10 -0.1084574E-07
  0.2900000E+01 -0.8842397E-09 -0.4940454E-06  0.7738048E-01 -0.4388257E+01 -0.6992169E-07 -0.4083283E-04 -0.1592523E-01  0.1379610E+00 -0.5699006E-10 -0.1152744E-06 -0.8046609E-10 -0.6433488E-08
  0.3000000E+01 -0.8842397E-09  0.3339950E-06  0.7738048E-01  0.1120337E+01 -0.6992169E-07  0.1290965E-04 -0.1592523E-01  0.1366844E+00 -0.5699006E-10 -0.1480307E-06 -0.8046609E-10  0.3770720E-08
  0.3100000E+01 -0.8842397E-09 -0.5293532E-06  0.7738048E-01 -0.1026570E+02 -0.6992169E-07 -0.2625335E-04 -0.1592523E-01  0.7840937E+00 -0.5699006E-10  0.2580100E-07 -0.8046609E-10 -0.8247123E-08
  0.3200000E+01 -0.8842397E-09 -0.2420012E-08  0.7738048E-01  0.1924469E+02 -0.6992169E-07  0.2432187E-04 -0.1592523E-01 -0.3394094E+01 -0.5699006E-10  0.1457991E-06 -0.8046609E-10  0.6092704E-09
  0.3300000E+01 -0.8842397E-09  0.7628156E-06  0.7738048E-01  0.3238225E+02 -0.6992169E-07 -0.3067876E-05 -0.1592523E-01 -0.3739294E+01 -0.5699006E-10 -0.1209304E-07 -0.8046609E-10  0.1057531E-07
  0.3400000E+01 -0.8842397E-09  0.5039160E-06  0.7738048E-01 -0.2275375E+02 -0.6992169E-07  0.1270813E-04 -0.1592523E-01  0.4842126E+01 -0.5699006E-10 -0.8642282E-08 -0.8046609E-10  0.7989930E-08
  0.3500000E+01 -0.8842397E-09 -0.1587595E-05  0.7738048E-01 -0.6661753E+02 -0.6992169E-07  0.3474379E-04 -0.1592523E-01  0.1052094E+02 -0.5699006E-10  0.6052659E-07 -0.8046609E-10  0.9896813E-08
  0.3600000E+01 -0.8842397E-09 -0.1599458E-05  0.7738048E-01 -0.8970532E+02 -0.6992169E-07 -0.4109157E-04 -0.1592523E-01  0.1215795E+02 -0.5699006E-10 -0.2594122E-07 -0.8046609E-10 -0.4712954E-07
  0.3700000E+01 -0.8842397E-09  0.1758297E-05  0.7738048E-01  0.2044840E+03 -0.6992169E-07  0.8391465E-05 -0.1592523E-01 -0.2792460E+02 -0.5699006E-10  0.4339613E-07 -0.8046609E-10  0.6979305E-07
  0.3800000E+01 -0.8842397E-09  0.7617361E-06  0.7738048E-01  0.1186835E+02 -0.6992169E-07 -0.3645962E-04 -0.1592523E-01 -0.3436073E+01 -0.5699006E-10 -0.3285176E-07 -0.8046609E-10 -0.2520532E-07
  0.3900000E+01 -0.8842397E-09 -0.1101118E-05  0.7738048E-01  0.8236047E+00 -0.6992169E-07  0.2100667E-04 -0.1592523E-01 -0.1655400E+01 -0.5699006E-10  0.2078854E-07 -0.8046609E-10 -0.7966716E-08
  0.4000000E+01 -0.8842397E-09 -0.1154162E-05  0.7738048E-01 -0.3236427E+02 -0.6992169E-07 -0.2160404E-04 -0.1592523E-01  0.4288108E+01 -0.5699006E-10 -0.3616672E-07 -0.8046609E-10 -0.4365833E-08
  0.4100000E+01 -0.8842397E-09  0.7173157E-06  0.7738048E-01 -0.4362703E+02 -0.6992169E-07  0.9531669E-05 -0.1592523E-01  0.6803106E+01 -0.5699006E-10 -0.1062813E-06 -0.8046609E-10 -0.4814784E-08
  0.4200000E+01 -0.8842397E-09  0.9044308E-06  0.7738048E-01  0.9518575E+01 -0.6992169E-07  0.1030238E-04 -0.1592523E-01 -0.9990292E+00 -0.5699006E-10 -0.1321815E-07 -0.8046609E-10  0.3406576E-08
  0.4300000E+01 -0.8842397E-09  0.5279620E-06  0.7738048E-01  0.1041146E+02 -0.6992169E-07 -0.1100566E-04 -0.1592523E-01 -0.1665924E+01 -0.5699006E-10  0.9592328E-07 -0.8046609E-10 -0.2177053E-08
  0.4400000E+01 -0.8842397E-09  0.1422569E-05  0.7738048E-01 -0.2535088E+02 -0.6992169E-07  0.5058600E-04 -0.1592523E-01  0.4232839E+01 -0.5699006E-10  0.5814753E-07 -0.8046609E-10 -0.1660787E-09
  0.4500000E+01 -0.8842397E-09 -0.1814471E-06  0.7738048E-01 -0.2487167E+02 -0.6992169E-07 -0.2777366E-04 -0.1592523E-01  0.5019322E+01 -0.5699006E-10 -0.8682797E-07 -0.8046609E-10  0.8638719E-08
  0.4600000E+01 -0.8842397E-09 -0.1293461E-05  0.7738048E-01 -0.6109803E+02 -0.6992169E-07  0.4483180E-04 -0.1592523E-01  0.8927184E+01 -0.5699006E-10  0.8021414E-08 -0.8046609E-10 -0.2454011E-08
  0.4700000E+01 -0.8842397E-09 -0.1411222E-05  0.7738048E-01 -0.9543105E+02 -0.6992169E-07 -0.8427754E-05 -0.1592523E-01  0.1185349E+02 -0.5699006E-10  0.1420106E-07 -0.8046609E-10 -0.3582428E-07
  0.4800000E+01 -0.8842397E-09  0.1100466E-05  0.7738048E-01  0.1970622E+03 -0.6992169E-07 -0.4153766E-04 -0.1592523E-01 -0.2800463E+02 -0.5699006E-10  0.4220599E-08 -0.8046609E-10  0.3699587E-07
  0.4900000E+01 -0.8842397E-09  0.9365232E-06  0.7738048E-01  0.1861926E+03 -0.6992169E-07 -0.4623534E-04 -0.1592523E-01 -0.2654843E+02 -0.5699006E-10 -0.7087728E-09 -0.8046609E-10  0.3110603E-07
  0.5000000E+01 -0.8842397E-09 -0.1514159E-05  0.7738048E-01 -0.9026589E+02 -0.6992169E-07 -0.6790328E-05 -0.1592523E-01  0.1126999E+02 -0.5699006E-10  0.2069788E-07 -0.8046609E-10 -0.3211851E-07