VARIABLES="w (rad/s)"
"A   1   1" "B   1   1"
"A   1   2" "B   1   2"
"A   1   3" "B   1   3"
"A   1   4" "B   1   4"
"A   1   5" "B   1   5"
"A   1   6" "B   1   6"
Zone t="Motion of body    1 in DoF   1",I=    25,F=POINT
  0.1300000E+01  0.3354277E+01  0.4197334E-03  0.1020313E-07 -0.9396928E-12 -0.4205280E-06 -0.1146839E-06  0.1119378E-09  0.3765876E-12  0.5212786E+00  0.7873435E-04 -0.8753682E-15 -0.1165517E-17
  0.6483333E+01  0.3979750E+01  0.1016216E+02 -0.2271445E-08  0.2668821E-07 -0.3447570E-06  0.5062670E-05  0.2513853E-09  0.1542503E-08  0.6095338E+00  0.1716269E+01  0.4674924E-14  0.1071365E-13
  0.1166667E+02  0.1760457E+01  0.2133465E+02 -0.3347771E-07  0.7223571E-07  0.5492141E-06  0.2168119E-05 -0.1189931E-08  0.1775334E-07  0.2475277E+00  0.3135833E+01  0.1903239E-15  0.1221245E-14
  0.1685000E+02  0.1308494E+01  0.1493075E+02 -0.1519963E-09  0.4193134E-07  0.7155652E-05  0.8396432E-04  0.1019066E-09  0.1203443E-07  0.1857481E+00  0.1868087E+01  0.1548382E-14 -0.2942091E-14
  0.2203333E+02  0.1215062E+01  0.1301188E+02 -0.8242417E-09 -0.7187191E-07 -0.3824481E-06 -0.7934868E-06 -0.1466199E-08 -0.7115887E-08  0.1950123E+00  0.1732038E+01 -0.5845048E-15  0.4579670E-14
  0.2721667E+02  0.1245126E+01  0.9305096E+01  0.6959255E-08 -0.1885928E-07 -0.2617056E-06 -0.1871027E-05 -0.4234580E-09 -0.6279151E-08  0.2019858E+00  0.1223216E+01  0.2659640E-14  0.1008915E-13
  0.3240000E+02  0.1293804E+01  0.6216518E+01 -0.1543222E-07  0.5980473E-07 -0.1779861E-06  0.1498498E-05  0.3952372E-09  0.2910383E-10  0.2097629E+00  0.8145531E+00 -0.1370646E-16 -0.1179612E-13
  0.3758333E+02  0.1347399E+01  0.3226771E+01 -0.7399989E-08 -0.2733987E-07 -0.2125150E-06  0.6140326E-06  0.4336536E-10  0.1807166E-08  0.2144205E+00  0.4180448E+00  0.1264325E-14 -0.1909931E-14
  0.4276666E+02  0.1411673E+01 -0.5694448E+01  0.2072611E-07  0.1554872E-07 -0.6114936E-06 -0.1920387E-05 -0.2395452E-09 -0.4656613E-09  0.2230666E+00 -0.7665792E+00  0.6541923E-14 -0.1942890E-15
  0.4795000E+02  0.1488961E+01 -0.3427742E+01  0.1738825E-07  0.1178341E-07 -0.9546687E-06 -0.3380235E-05  0.8764532E-09  0.2117304E-08  0.2341908E+00 -0.4615269E+00  0.3037774E-14 -0.3580469E-14
  0.5313333E+02  0.1521024E+01 -0.5542457E+01  0.5740429E-09  0.4853064E-08 -0.4896630E-06  0.5336478E-06  0.1564377E-08 -0.1498847E-08  0.2390549E+00 -0.7501213E+00  0.1972492E-14 -0.1526557E-13
  0.5831666E+02  0.1653449E+01 -0.4550795E+01 -0.1123895E-07  0.4511094E-09 -0.4047461E-06 -0.3551133E-05  0.7585795E-09  0.7130438E-09  0.2573626E+00 -0.6108822E+00 -0.3046054E-15  0.5911938E-14
  0.6350000E+02  0.1652737E+01 -0.1840127E+00 -0.2416305E-08  0.1489525E-08 -0.5941691E-06  0.2092289E-05 -0.2331973E-08 -0.1080025E-09  0.2576469E+00 -0.2453250E-01 -0.6014436E-15  0.9540979E-17
  0.6868333E+02  0.1640131E+01  0.1063479E+00  0.1449867E-07 -0.1996341E-08 -0.1018385E-05  0.3803289E-06 -0.5932351E-09 -0.1739409E-09  0.2562371E+00  0.1426724E-01  0.3478574E-14  0.5247539E-16
  0.7386666E+02  0.1654569E+01  0.6440418E+00  0.2218721E-07  0.9367795E-10 -0.8186225E-06 -0.6342889E-06 -0.1418418E-09  0.4843059E-09  0.2584302E+00  0.8670750E-01 -0.8380782E-14  0.7979728E-15
  0.7905000E+02  0.1651322E+01  0.1756192E+00  0.4630104E-08 -0.2231900E-08 -0.7755012E-06  0.2090819E-06  0.3298802E-09 -0.4524736E-10  0.2581994E+00  0.2360537E-01  0.5247050E-14  0.4250073E-16
  0.8423333E+02  0.1653015E+01  0.2002557E+00  0.3466201E-08  0.8785719E-09 -0.8236622E-06  0.3070454E-07 -0.7103776E-09 -0.1091394E-10  0.2585956E+00  0.2692275E-01  0.1444564E-14  0.2389582E-15
  0.8941666E+02  0.1669052E+01  0.1049893E-01  0.4218293E-09  0.1074767E-09 -0.8725721E-06 -0.9392352E-08  0.1926874E-09  0.9052314E-11  0.2608924E+00  0.1412329E-02  0.3764619E-14  0.1680513E-17
  0.9460000E+02  0.1675132E+01  0.7815686E-02  0.1276877E-07 -0.8037659E-10 -0.6388912E-06 -0.1675926E-07 -0.1393046E-08  0.9393375E-11  0.2618277E+00  0.1050833E-02  0.6384369E-15  0.5664956E-17
  0.9978333E+02  0.1662286E+01  0.0000000E+00  0.1129347E-08  0.0000000E+00 -0.9885988E-06  0.0000000E+00 -0.6113409E-09  0.0000000E+00  0.2602006E+00  0.0000000E+00 -0.8901070E-16  0.0000000E+00
  0.1049667E+03  0.1667310E+01  0.0000000E+00  0.1654731E-08  0.0000000E+00 -0.8591471E-06  0.0000000E+00  0.8961278E-09  0.0000000E+00  0.2609621E+00  0.0000000E+00 -0.8749218E-14  0.0000000E+00
  0.1101500E+03  0.1671646E+01  0.0000000E+00 -0.6844354E-08  0.0000000E+00 -0.8170950E-06  0.0000000E+00  0.5199849E-09  0.0000000E+00  0.2616183E+00  0.0000000E+00 -0.5079913E-14  0.0000000E+00
  0.1153333E+03  0.1675408E+01  0.0000000E+00  0.8700870E-08  0.0000000E+00 -0.8144822E-06  0.0000000E+00  0.6298542E-09  0.0000000E+00  0.2621884E+00  0.0000000E+00  0.2248684E-14  0.0000000E+00
  0.1205167E+03  0.1678696E+01  0.0000000E+00 -0.1538208E-07  0.0000000E+00 -0.6933953E-06  0.0000000E+00  0.4713926E-09  0.0000000E+00  0.2626866E+00  0.0000000E+00  0.1842439E-14  0.0000000E+00
  0.1257000E+03  0.1681585E+01  0.0000000E+00 -0.6256976E-08  0.0000000E+00 -0.7733904E-06  0.0000000E+00 -0.2482045E-09  0.0000000E+00  0.2631242E+00  0.0000000E+00  0.2345865E-14  0.0000000E+00
Zone t="Motion of body    1 in DoF   2",I=    25,F=POINT
  0.1300000E+01 -0.1370119E-07 -0.3358203E-11  0.3354279E+01  0.4197488E-03 -0.1397879E-05  0.6789236E-10 -0.5212784E+00 -0.7873520E-04  0.2238756E-10  0.6501466E-12 -0.4138643E-09 -0.4816164E-13
  0.6483333E+01  0.3232994E-07 -0.7063500E-07  0.3979749E+01  0.1016217E+02 -0.1625314E-05 -0.4835660E-05 -0.6095345E+00 -0.1716270E+01  0.1642982E-08 -0.7625204E-08 -0.3189507E-09 -0.2928894E-09
  0.1166667E+02  0.1041252E-07  0.2957531E-06  0.1760457E+01  0.2133466E+02  0.1959170E-06 -0.2140645E-05 -0.2475275E+00 -0.3135824E+01 -0.4639981E-09  0.1388253E-07 -0.2842350E-09  0.2668419E-08
  0.1685000E+02  0.8325250E-08  0.2980960E-06  0.1308484E+01  0.1493065E+02 -0.1259358E-06 -0.2440938E-05 -0.1857456E+00 -0.1868064E+01  0.1222879E-08 -0.1678563E-07 -0.3754594E-09  0.5216321E-08
  0.2203333E+02 -0.6678471E-08  0.2938032E-07  0.1215062E+01  0.1301189E+02  0.7487919E-07 -0.1293898E-05 -0.1950121E+00 -0.1732037E+01 -0.2404038E-09  0.5966285E-08 -0.6001499E-09  0.5106350E-08
  0.2721667E+02 -0.5962631E-08  0.9805808E-07  0.1245128E+01  0.9305096E+01 -0.3366962E-06  0.9672774E-05 -0.2019857E+00 -0.1223217E+01  0.4619542E-09  0.8491043E-08 -0.6498698E-09  0.4914452E-08
  0.3240000E+02  0.1561905E-07 -0.1022272E-08  0.1293802E+01  0.6216522E+01  0.1624784E-06  0.4004687E-06 -0.2097628E+00 -0.8145530E+00  0.1329434E-09  0.1116859E-08 -0.6931223E-09  0.3509651E-08
  0.3758333E+02  0.1615979E-07 -0.9270934E-08  0.1347399E+01  0.3226767E+01  0.2261442E-06 -0.3178066E-06 -0.2144205E+00 -0.4180446E+00  0.3624105E-09  0.1629815E-08 -0.6821865E-09  0.2466103E-08
  0.4276666E+02  0.3397187E-08  0.4774483E-07  0.1411672E+01 -0.5694446E+01  0.5627352E-06  0.2955174E-05 -0.2230663E+00  0.7665794E+00  0.2558778E-09  0.6657501E-08 -0.6809191E-09 -0.7341370E-09
  0.4795000E+02 -0.1665018E-07  0.3099922E-07  0.1488962E+01 -0.3427738E+01  0.1336365E-05  0.2016895E-05 -0.2341904E+00  0.4615259E+00  0.7939063E-09 -0.3921741E-08 -0.6497779E-09 -0.6365045E-09
  0.5313333E+02 -0.7659748E-08 -0.5323818E-07  0.1521023E+01 -0.5542458E+01 -0.4755530E-06  0.2435117E-05 -0.2390549E+00  0.7501216E+00  0.4382007E-09  0.1484295E-08 -0.6284843E-09 -0.7944164E-09
  0.5831666E+02  0.1257645E-07  0.1093249E-06  0.1653450E+01 -0.4550795E+01  0.3541847E-06  0.1414883E-05 -0.2573624E+00  0.6108830E+00  0.7785421E-09 -0.5304173E-08 -0.6033722E-09 -0.1150332E-08
  0.6350000E+02 -0.1674547E-07 -0.5768470E-09  0.1652736E+01 -0.1840134E+00  0.4505841E-06  0.7809012E-07 -0.2576469E+00  0.2453261E-01 -0.1356651E-09  0.6355094E-10 -0.5972437E-09 -0.7584763E-10
  0.6868333E+02 -0.1423764E-09 -0.7481731E-09  0.1640130E+01  0.1063484E+00  0.7234079E-06 -0.3796686E-07 -0.2562366E+00 -0.1426732E-01 -0.1254269E-09 -0.1023182E-10 -0.6003997E-09  0.3405397E-10
  0.7386666E+02  0.1563412E-07  0.5566108E-09  0.1654569E+01  0.6440399E+00 -0.4472366E-06  0.3128225E-06 -0.2584299E+00 -0.8670719E-01  0.1639061E-09 -0.1587068E-09 -0.5959681E-09  0.1854542E-09
  0.7905000E+02  0.6297178E-08  0.2232809E-09  0.1651322E+01  0.1756197E+00 -0.5926298E-06 -0.8379266E-07 -0.2581991E+00 -0.2360546E-01 -0.7657934E-09 -0.1818989E-09 -0.5973111E-09  0.5670353E-10
  0.8423333E+02 -0.1009455E-07 -0.1975877E-08  0.1653017E+01  0.2002562E+00 -0.1962301E-06 -0.3554123E-07 -0.2585957E+00 -0.2692282E-01  0.6081054E-10 -0.1509761E-09 -0.5973280E-09  0.6601104E-10
  0.8941666E+02 -0.1000933E-07 -0.1271871E-10  0.1669050E+01  0.1049889E-01  0.6815928E-06 -0.2928232E-08 -0.2608920E+00 -0.1412323E-02  0.1588370E-09 -0.1658407E-10 -0.5925440E-09  0.3461042E-11
  0.9460000E+02 -0.6625582E-08  0.6406253E-10  0.1675130E+01  0.7815691E-02  0.8759749E-06  0.1019203E-09 -0.2618274E+00 -0.1050834E-02  0.9549502E-09 -0.7588596E-11 -0.5909425E-09  0.2674033E-11
  0.9978333E+02 -0.1796689E-08  0.0000000E+00  0.1662284E+01  0.0000000E+00  0.6208236E-06  0.0000000E+00 -0.2602004E+00  0.0000000E+00 -0.9333448E-11  0.0000000E+00 -0.5958888E-09  0.0000000E+00
  0.1049667E+03  0.5456620E-09  0.0000000E+00  0.1667312E+01  0.0000000E+00 -0.5021865E-06  0.0000000E+00 -0.2609618E+00  0.0000000E+00 -0.1548261E-08  0.0000000E+00 -0.5946601E-09  0.0000000E+00
  0.1101500E+03  0.6404692E-08  0.0000000E+00  0.1671645E+01  0.0000000E+00  0.2785597E-06  0.0000000E+00 -0.2616181E+00  0.0000000E+00 -0.2050347E-08  0.0000000E+00 -0.5935606E-09  0.0000000E+00
  0.1153333E+03  0.1881487E-08  0.0000000E+00  0.1675407E+01  0.0000000E+00  0.6453583E-07  0.0000000E+00 -0.2621881E+00  0.0000000E+00 -0.1170883E-09  0.0000000E+00 -0.5925995E-09  0.0000000E+00
  0.1205167E+03  0.1506911E-09  0.0000000E+00  0.1678696E+01  0.0000000E+00  0.1485428E-05  0.0000000E+00 -0.2626863E+00  0.0000000E+00 -0.2550157E-08  0.0000000E+00 -0.5917575E-09  0.0000000E+00
  0.1257000E+03 -0.1727059E-07  0.0000000E+00  0.1681585E+01  0.0000000E+00  0.5793612E-06  0.0000000E+00 -0.2631240E+00  0.0000000E+00  0.3185909E-09  0.0000000E+00 -0.5910479E-09  0.0000000E+00
Zone t="Motion of body    1 in DoF   3",I=    25,F=POINT
  0.1300000E+01 -0.8883385E-07 -0.1258450E-06 -0.1015477E-05  0.2544766E-06  0.4163672E+02  0.4663671E+01 -0.9623070E-06  0.4676258E-07 -0.1117587E-06  0.0000000E+00  0.1460370E-13  0.4107825E-14
  0.6483333E+01 -0.2824134E-06 -0.1803041E-05 -0.2637534E-05 -0.2100656E-05  0.2343635E+02  0.9548969E+02  0.1335933E-06 -0.1212000E-05 -0.2689104E-06  0.2328306E-06  0.4452308E-14 -0.1398881E-13
  0.1166667E+02  0.2442725E-06 -0.1013651E-04  0.6333325E-07 -0.6237882E-05  0.1742626E+02  0.6759306E+02 -0.1047139E-06  0.1254259E-05  0.4048857E-06 -0.1494773E-05 -0.8754899E-15  0.2831069E-13
  0.1685000E+02 -0.1155172E-05  0.6915070E-06  0.3716585E-06 -0.5730486E-05  0.1849398E+02  0.4879013E+02 -0.5355795E-06  0.7906638E-06 -0.7393098E-06  0.1201406E-06 -0.8433741E-15  0.1543210E-13
  0.2203333E+02 -0.7801131E-06 -0.1957174E-05 -0.4751119E-06  0.3849811E-05  0.1918268E+02  0.3176629E+02 -0.1536894E-06  0.9415526E-06 -0.8791911E-08 -0.3259629E-08 -0.8787727E-14 -0.9547918E-14
  0.2721667E+02  0.1669879E-06  0.1227250E-05  0.6585414E-06  0.2568195E-06  0.1965159E+02  0.1985343E+02 -0.2877461E-06 -0.2858214E-06 -0.3285008E-08  0.3443565E-06 -0.2251720E-14 -0.1054712E-13
  0.3240000E+02 -0.2678989E-06 -0.4767440E-05  0.6374098E-07  0.5055117E-06  0.1922017E+02  0.1052099E+02 -0.5619842E-06 -0.8587813E-07 -0.1214169E-06 -0.9009382E-06 -0.5537408E-14 -0.2400857E-14
  0.3758333E+02 -0.9436302E-07 -0.8628704E-06  0.1182016E-06 -0.1335306E-05  0.1932681E+02 -0.6435497E+01  0.1135925E-06 -0.1712906E-06 -0.6660919E-07 -0.3129244E-06  0.5340887E-14  0.1132427E-13
  0.4276666E+02 -0.3498231E-06 -0.1240118E-05  0.5341858E-07 -0.6183845E-06  0.1988318E+02  0.2840492E+01 -0.4562030E-06 -0.1363499E-06 -0.9477279E-07 -0.2039160E-06  0.2201409E-14  0.1417269E-14
  0.4795000E+02  0.1609760E-06 -0.3357534E-05  0.5552003E-06  0.1278077E-06  0.2032624E+02  0.3416703E+01 -0.2556039E-07 -0.8846291E-07 -0.8390644E-07 -0.4454050E-06  0.3704602E-16  0.1318390E-15
  0.5313333E+02 -0.4307688E-06  0.4019821E-06  0.4528016E-06  0.2526111E-05  0.2032768E+02 -0.1050824E+02 -0.4327670E-06  0.3487148E-06 -0.1503204E-06 -0.6658956E-07  0.1437579E-14 -0.1237899E-13
  0.5831666E+02 -0.4829357E-06 -0.3052177E-05  0.3893509E-07 -0.6549599E-06  0.2087194E+02 -0.1002075E+02 -0.3213502E-06  0.5301190E-06 -0.1333822E-06 -0.2983725E-06  0.7919740E-15 -0.7646661E-14
  0.6350000E+02 -0.4791838E-06  0.1551583E-05 -0.7528166E-06  0.3566447E-07  0.2086675E+02  0.1136691E+01  0.4059980E-06  0.1823537E-07  0.1858538E-06  0.2060260E-06 -0.1566551E-14 -0.4354156E-15
  0.6868333E+02 -0.2061068E-06  0.3343030E-06 -0.7615241E-06  0.6192067E-08  0.2095970E+02 -0.1387564E+00 -0.4493672E-07  0.1487876E-08 -0.5467255E-07  0.4561662E-07 -0.7448543E-14  0.2905662E-16
  0.7386666E+02 -0.2110101E-06 -0.4425383E-06 -0.8333993E-08 -0.1442622E-06  0.2103761E+02  0.1575853E+01  0.6667194E-06 -0.2145407E-07 -0.2436905E-06 -0.7465133E-07  0.5434883E-14 -0.1283695E-14
  0.7905000E+02 -0.4147066E-07  0.1625103E-06 -0.1364055E-06 -0.2423008E-07  0.2105949E+02  0.1748739E+00 -0.3944425E-06 -0.7146696E-08 -0.3619257E-07  0.2251909E-07 -0.6291966E-15  0.4640385E-16
  0.8423333E+02 -0.3789270E-06  0.7408380E-07  0.3568805E-06  0.3001105E-08  0.2109471E+02  0.4317652E+00 -0.3718288E-06 -0.7223662E-08 -0.8703647E-07  0.9240466E-08 -0.8435411E-16  0.2688821E-16
  0.8941666E+02 -0.1606493E-06 -0.7363724E-08  0.9047353E-06 -0.5319691E-09  0.2115714E+02  0.2177252E-01 -0.2070609E-07  0.6189538E-09 -0.7865814E-07 -0.8012648E-09  0.4291069E-14  0.2100642E-16
  0.9460000E+02 -0.4656219E-06 -0.1363537E-07 -0.3154486E-06  0.6367031E-09  0.2119241E+02  0.1928843E-01  0.2052454E-06  0.4321805E-09 -0.5670632E-08 -0.2022716E-08  0.1990421E-14  0.3252607E-18
  0.9978333E+02 -0.4569656E-06  0.0000000E+00  0.2641179E-06  0.0000000E+00  0.2118128E+02  0.0000000E+00 -0.4443095E-06  0.0000000E+00  0.1314150E-07  0.0000000E+00 -0.2848342E-15  0.0000000E+00
  0.1049667E+03 -0.1879562E-06  0.0000000E+00 -0.1461398E-05  0.0000000E+00  0.2120856E+02  0.0000000E+00 -0.6111414E-07  0.0000000E+00 -0.1328754E-06  0.0000000E+00 -0.7919988E-14  0.0000000E+00
  0.1101500E+03 -0.4080064E-06  0.0000000E+00  0.4255252E-06  0.0000000E+00  0.2123204E+02  0.0000000E+00  0.8488859E-08  0.0000000E+00  0.3841970E-07  0.0000000E+00  0.4257451E-14  0.0000000E+00
  0.1153333E+03 -0.2010365E-06  0.0000000E+00 -0.4376679E-08  0.0000000E+00  0.2125249E+02  0.0000000E+00  0.4181909E-06  0.0000000E+00  0.5684838E-08  0.0000000E+00 -0.4867014E-14  0.0000000E+00
  0.1205167E+03 -0.4836951E-06  0.0000000E+00  0.5629973E-06  0.0000000E+00  0.2127034E+02  0.0000000E+00 -0.1954502E-06  0.0000000E+00  0.1434270E-07  0.0000000E+00 -0.3183734E-14  0.0000000E+00
  0.1257000E+03 -0.1991563E-07  0.0000000E+00 -0.6230748E-06  0.0000000E+00  0.2128600E+02  0.0000000E+00 -0.3479309E-06  0.0000000E+00 -0.3983127E-07  0.0000000E+00 -0.3617720E-14  0.0000000E+00
Zone t="Motion of body    1 in DoF   4",I=    25,F=POINT
  0.1300000E+01  0.1632893E-08 -0.7349676E-13 -0.5218537E+00 -0.7891384E-04  0.5069440E-06  0.7308287E-10  0.1492220E+00  0.1480080E-04 -0.3022321E-09 -0.2442491E-13  0.1010942E-09  0.9084879E-14
  0.6483333E+01  0.3546328E-08  0.1758963E-07 -0.6102552E+00 -0.1717286E+01 -0.2007491E-07 -0.2414570E-05  0.1612283E+00  0.2899482E+00  0.4893035E-09 -0.4183676E-09  0.8604998E-10  0.4971184E-10
  0.1166667E+02 -0.1842272E-08  0.5607217E-07 -0.2472109E+00 -0.3123582E+01  0.1395387E-06  0.1329492E-05  0.1023469E+00  0.4586248E+00 -0.4989227E-11  0.9677024E-09  0.8250536E-10 -0.3882542E-09
  0.1685000E+02  0.1860227E-08  0.1032458E-07 -0.1998516E+00 -0.2074497E+01 -0.6969719E-07  0.1125554E-05  0.9695259E-01  0.2600424E+00 -0.5112601E-09 -0.3497917E-08  0.9961303E-10 -0.7246637E-09
  0.2203333E+02 -0.1770006E-09  0.1167246E-07 -0.1934771E+00 -0.1752461E+01  0.8832067E-07 -0.3327877E-06  0.9908603E-01  0.2337359E+00 -0.8506597E-09  0.2377419E-08  0.1286388E-09 -0.6760683E-09
  0.2721667E+02 -0.1561234E-09 -0.3919922E-09 -0.2012708E+00 -0.1233834E+01 -0.1412382E-06  0.3416062E-06  0.1003635E+00  0.1621462E+00  0.2929987E-09  0.6184564E-10  0.1343780E-09 -0.6500233E-09
  0.3240000E+02 -0.3952372E-09 -0.9913492E-10 -0.2078181E+00 -0.8215981E+00  0.3649261E-06  0.6342452E-07  0.1001530E+00  0.1076348E+00 -0.2874452E-10  0.4547474E-11  0.1384836E-09 -0.4643096E-09
  0.3758333E+02  0.3314352E-09  0.9049472E-10 -0.2121677E+00 -0.4276285E+00 -0.2366757E-06 -0.2794241E-07  0.1004006E+00  0.5541830E-01 -0.4646288E-09 -0.1546141E-10  0.1343105E-09 -0.3250159E-09
  0.4276666E+02 -0.2096021E-08 -0.1667104E-08 -0.2219093E+00  0.7516920E+00  0.2484737E-07 -0.7719063E-07  0.1021029E+00 -0.1011905E+00 -0.2640441E-09  0.6766641E-09  0.1354957E-09  0.9688589E-10
  0.4795000E+02 -0.8133291E-10  0.6023583E-08 -0.2333703E+00  0.4515108E+00  0.2514085E-06 -0.2598026E-06  0.1039789E+00 -0.6079326E-01  0.8497469E-10  0.1768967E-09  0.1321106E-09  0.8380292E-10
  0.5313333E+02 -0.1542467E-08 -0.1379703E-08 -0.2384666E+00  0.7311054E+00 -0.9586079E-07  0.5794209E-07  0.1049080E+00 -0.9894833E-01 -0.5302229E-09  0.1309672E-08  0.1296887E-09  0.1048049E-09
  0.5831666E+02 -0.1602998E-08  0.1149601E-08 -0.2569980E+00  0.6043972E+00 -0.1515242E-06  0.1355475E-06  0.1075929E+00 -0.8113194E-01 -0.5389907E-10  0.3979039E-09  0.1265648E-09  0.1527942E-09
  0.6350000E+02 -0.2957133E-08  0.1649880E-10 -0.2573408E+00  0.2444083E-01  0.1373811E-06 -0.8889174E-08  0.1077867E+00 -0.3258418E-02  0.3299962E-10  0.1058709E-10  0.1259623E-09  0.1007661E-10
  0.6868333E+02  0.5008599E-08  0.1837464E-10 -0.2561822E+00 -0.1421039E-01 -0.2202631E-06  0.6248740E-08  0.1077447E+00  0.1906413E-02 -0.8644284E-09  0.1847411E-11  0.1265042E-09 -0.4550202E-11
  0.7386666E+02  0.4479048E-08 -0.4491767E-09 -0.2583752E+00 -0.8605721E-01 -0.1253125E-06  0.1844137E-07  0.1081336E+00  0.1158590E-01 -0.6304079E-10 -0.3115019E-10  0.1260481E-09 -0.2478283E-10
  0.7905000E+02  0.3608065E-09 -0.3078071E-10 -0.2581547E+00 -0.2346647E-01  0.1614881E-06 -0.5619427E-08  0.1081803E+00  0.3154186E-02  0.1234105E-08 -0.6650680E-11  0.1263443E-09 -0.7576683E-11
  0.8423333E+02  0.9149222E-09 -0.1874980E-09 -0.2585564E+00 -0.2675841E-01 -0.1263975E-06 -0.1420222E-07  0.1082969E+00  0.3597452E-02 -0.3925044E-09  0.2074785E-11  0.1264353E-09 -0.8820248E-11
  0.8941666E+02  0.8358469E-09  0.1340794E-10 -0.2608447E+00 -0.1402872E-02  0.7638756E-07  0.1182343E-09  0.1086568E+00  0.1887161E-03 -0.3619400E-09  0.1410427E-11  0.1258677E-09 -0.4624996E-12
  0.9460000E+02  0.1121082E-08 -0.1363354E-11 -0.2617796E+00 -0.1044340E-02  0.2923723E-06 -0.1091749E-09  0.1088262E+00  0.1404134E-03  0.2436600E-09 -0.7096546E-12  0.1257256E-09 -0.3572813E-12
  0.9978333E+02 -0.1225015E-08  0.0000000E+00 -0.2601667E+00  0.0000000E+00  0.8127567E-07  0.0000000E+00  0.1086465E+00  0.0000000E+00 -0.5950073E-09  0.0000000E+00  0.1264426E-09  0.0000000E+00
  0.1049667E+03  0.1592623E-08  0.0000000E+00 -0.2609273E+00  0.0000000E+00 -0.1370632E-06  0.0000000E+00  0.1087806E+00  0.0000000E+00  0.1219976E-09  0.0000000E+00  0.1263139E-09  0.0000000E+00
  0.1101500E+03  0.2380093E-08  0.0000000E+00 -0.2615830E+00  0.0000000E+00 -0.2629686E-06  0.0000000E+00  0.1088960E+00  0.0000000E+00  0.1416219E-09  0.0000000E+00  0.1262077E-09  0.0000000E+00
  0.1153333E+03 -0.1312196E-08  0.0000000E+00 -0.2621523E+00  0.0000000E+00 -0.9024680E-07  0.0000000E+00  0.1089965E+00  0.0000000E+00 -0.9891941E-09  0.0000000E+00  0.1261149E-09  0.0000000E+00
  0.1205167E+03 -0.1802497E-08  0.0000000E+00 -0.2626497E+00  0.0000000E+00 -0.6707685E-08  0.0000000E+00  0.1090841E+00  0.0000000E+00 -0.4018428E-09  0.0000000E+00  0.1260317E-09  0.0000000E+00
  0.1257000E+03  0.2830272E-08  0.0000000E+00 -0.2630867E+00  0.0000000E+00  0.1320004E-06  0.0000000E+00  0.1091612E+00  0.0000000E+00  0.6186590E-09  0.0000000E+00  0.1259677E-09  0.0000000E+00
Zone t="Motion of body    1 in DoF   5",I=    25,F=POINT
  0.1300000E+01  0.5218537E+00  0.7891229E-04  0.6225142E-08  0.1743050E-12 -0.1332508E-06 -0.2099915E-07 -0.3582010E-09 -0.9903189E-13  0.1492219E+00  0.1480085E-04  0.6618638E-15 -0.1058791E-18
  0.6483333E+01  0.6102554E+00  0.1717286E+01 -0.6648243E-08  0.1685112E-07  0.7354815E-07  0.1117587E-06 -0.5611279E-09  0.1440640E-08  0.1612284E+00  0.2899482E+00 -0.4623551E-15  0.4066192E-14
  0.1166667E+02  0.2472108E+00  0.3123585E+01  0.7670936E-09 -0.2457091E-07  0.3767864E-07  0.6100163E-06  0.9753939E-09 -0.1899025E-08  0.1023469E+00  0.4586251E+00  0.3663735E-15  0.3122502E-14
  0.1685000E+02  0.1998516E+00  0.2074508E+01 -0.8066166E-09  0.1933586E-08  0.9055661E-06  0.8283881E-05 -0.3799907E-09 -0.2859451E-08  0.9695248E-01  0.2600445E+00 -0.2800266E-15 -0.2421674E-14
  0.2203333E+02  0.1934774E+00  0.1752460E+01 -0.3143742E-09  0.2493653E-07  0.2333238E-07 -0.3597233E-06 -0.1320900E-10 -0.9367795E-09  0.9908605E-01  0.2337359E+00  0.6147378E-15  0.5481726E-15
  0.2721667E+02  0.2012708E+00  0.1233833E+01 -0.2983454E-09  0.1520675E-08 -0.3640884E-07 -0.6266637E-06  0.1775102E-09 -0.1200533E-09  0.1003634E+00  0.1621463E+00 -0.6322764E-15 -0.1540434E-14
  0.3240000E+02  0.2078181E+00  0.8215982E+00 -0.4706915E-09 -0.1695753E-08 -0.1812055E-06  0.2783490E-06  0.2694799E-09 -0.2278284E-09  0.1001529E+00  0.1076347E+00  0.3426614E-15 -0.1238593E-14
  0.3758333E+02  0.2121677E+00  0.4276288E+00  0.7588938E-09  0.2705974E-08  0.1974487E-06  0.5852780E-07 -0.3902882E-09  0.6492655E-09  0.1004006E+00  0.5541833E-01 -0.9452898E-15 -0.7160071E-15
  0.4276666E+02  0.2219094E+00 -0.7516924E+00 -0.1701315E-08 -0.2353772E-08 -0.1592322E-06 -0.1131557E-06 -0.4164820E-09  0.6702976E-09  0.1021029E+00 -0.1011904E+00 -0.5140083E-15 -0.2706169E-15
  0.4795000E+02  0.2333704E+00 -0.4515113E+00 -0.1790538E-08  0.4981302E-08 -0.1476132E-06 -0.3329478E-06 -0.3301873E-09 -0.5529728E-09  0.1039789E+00 -0.6079340E-01 -0.7964895E-15  0.1769418E-15
  0.5313333E+02  0.2384667E+00 -0.7311065E+00 -0.8435364E-09  0.1380613E-08 -0.1786457E-06  0.3166497E-07 -0.4447737E-09  0.1455192E-09  0.1049080E+00 -0.9894820E-01 -0.1504443E-15  0.1422473E-15
  0.5831666E+02  0.2569981E+00 -0.6043963E+00  0.7785421E-09 -0.6606570E-08  0.3883927E-07 -0.2306188E-06  0.6986916E-09 -0.1582521E-09  0.1075930E+00 -0.8113181E-01  0.1751481E-15  0.1033895E-14
  0.6350000E+02  0.2573410E+00 -0.2444071E-01 -0.1589482E-08  0.2803660E-09 -0.1215559E-06  0.2838551E-06  0.1246652E-09  0.3481659E-11  0.1077867E+00 -0.3258406E-02 -0.6888628E-15  0.1908196E-16
  0.6868333E+02  0.2561825E+00  0.1421030E-01 -0.3510257E-08  0.7408119E-10  0.1397187E-06  0.5119364E-07 -0.1088163E-08  0.1372769E-10  0.1077447E+00  0.1906400E-02 -0.4461368E-15  0.9215718E-18
  0.7386666E+02  0.2583752E+00  0.8605748E-01  0.1298640E-08  0.1748504E-09 -0.1613844E-06 -0.1070584E-06 -0.1576020E-09 -0.2285105E-10  0.1081336E+00  0.1158595E-01  0.1725455E-14  0.7762888E-16
  0.7905000E+02  0.2581548E+00  0.2346639E-01 -0.1826123E-09 -0.1686828E-09  0.8784239E-07  0.2520392E-07 -0.4388585E-09  0.2023626E-10  0.1081802E+00  0.3154171E-02 -0.4550439E-15  0.1696776E-16
  0.8423333E+02  0.2585566E+00  0.2675833E-01 -0.2598269E-09  0.1013518E-09 -0.1843333E-06  0.9469659E-08 -0.2819398E-09 -0.2205525E-10  0.1082970E+00  0.3597445E-02 -0.4744918E-16  0.2927346E-16
  0.8941666E+02  0.2608448E+00  0.1402877E-02 -0.2512749E-09 -0.2929212E-11  0.2399740E-07 -0.1257149E-08 -0.7551265E-10 -0.7194245E-12  0.1086567E+00  0.1887166E-03 -0.6804126E-15  0.2852807E-17
  0.9460000E+02  0.2617795E+00  0.1044340E-02  0.2645803E-08  0.8437695E-13 -0.1045917E-06 -0.2480192E-08  0.1041093E-08  0.6110668E-12  0.1088262E+00  0.1404133E-03 -0.2628858E-15  0.1998998E-18
  0.9978333E+02  0.2601669E+00  0.0000000E+00  0.8190101E-09  0.0000000E+00  0.3285374E-07  0.0000000E+00 -0.5576735E-09  0.0000000E+00  0.1086466E+00  0.0000000E+00  0.3115374E-15  0.0000000E+00
  0.1049667E+03  0.2609274E+00  0.0000000E+00  0.3360479E-09  0.0000000E+00 -0.7836239E-07  0.0000000E+00  0.3238482E-09  0.0000000E+00  0.1087805E+00  0.0000000E+00 -0.2496150E-15  0.0000000E+00
  0.1101500E+03  0.2615831E+00  0.0000000E+00 -0.1249232E-08  0.0000000E+00  0.1001077E-06  0.0000000E+00  0.1585320E-09  0.0000000E+00  0.1088961E+00  0.0000000E+00 -0.2781857E-15  0.0000000E+00
  0.1153333E+03  0.2621523E+00  0.0000000E+00  0.3613587E-09  0.0000000E+00 -0.6408363E-07  0.0000000E+00  0.8620120E-09  0.0000000E+00  0.1089965E+00  0.0000000E+00 -0.2079262E-15  0.0000000E+00
  0.1205167E+03  0.2626498E+00  0.0000000E+00 -0.1601576E-08  0.0000000E+00 -0.1137524E-07  0.0000000E+00 -0.2434240E-09  0.0000000E+00  0.1090841E+00  0.0000000E+00  0.5711559E-15  0.0000000E+00
  0.1257000E+03  0.2630869E+00  0.0000000E+00 -0.3278522E-09  0.0000000E+00 -0.1175971E-06  0.0000000E+00  0.4964090E-09  0.0000000E+00  0.1091611E+00  0.0000000E+00  0.3780234E-15  0.0000000E+00
Zone t="Motion of body    1 in DoF   6",I=    25,F=POINT
  0.1300000E+01  0.4763317E-14  0.6232806E-21 -0.4601422E-09 -0.5588942E-13 -0.7152399E-15  0.9505960E-20  0.1101086E-09  0.1056249E-13 -0.2995734E-15 -0.8209768E-22  0.1355217E-12  0.1330765E-20
  0.6483333E+01 -0.1628009E-14  0.6647921E-15 -0.3709762E-09 -0.4195329E-09 -0.2014241E-14  0.3559436E-15  0.9590414E-10  0.7097475E-10  0.2015312E-14  0.4854515E-16  0.1368354E-12 -0.4459712E-16
  0.1166667E+02 -0.1136353E-13  0.2081668E-14 -0.3141065E-09  0.2441954E-08 -0.2533687E-14  0.3171075E-14  0.8933014E-10 -0.3584812E-09  0.9771943E-15  0.4831205E-15  0.1387891E-12  0.1144968E-13
  0.1685000E+02 -0.9342799E-15  0.8080342E-14 -0.4721751E-09  0.5031810E-08  0.2291276E-14  0.1512679E-14  0.1098961E-09 -0.6387309E-09 -0.8285492E-15  0.1050375E-14  0.1367331E-12  0.7538223E-13
  0.2203333E+02  0.4249942E-15  0.1984524E-13 -0.6274301E-09  0.4842157E-08 -0.3476796E-15  0.5963979E-14  0.1340288E-09 -0.6465111E-09  0.3187063E-15 -0.6916559E-14  0.1368571E-12  0.7454783E-13
  0.2721667E+02  0.1917347E-14 -0.1182388E-13 -0.6866253E-09  0.4104724E-08  0.8627513E-15  0.4293441E-14  0.1411925E-09 -0.5384726E-09 -0.3365342E-15  0.2227385E-14  0.1363947E-12  0.2313661E-12
  0.3240000E+02  0.1057833E-14 -0.5739116E-14 -0.7140287E-09  0.3035235E-08  0.8395205E-15 -0.1385177E-14  0.1442460E-09 -0.3973676E-09  0.9714451E-15  0.1775164E-14  0.1307964E-12  0.2648388E-12
  0.3758333E+02 -0.7194495E-14 -0.2682316E-14 -0.7032259E-09  0.1710400E-08 -0.1754694E-14 -0.1236858E-14  0.1391043E-09 -0.2216350E-09 -0.5424339E-15 -0.7585078E-15  0.1295714E-12  0.2032366E-12
  0.4276666E+02  0.9958200E-15 -0.7588846E-14 -0.6739804E-09 -0.3124125E-08 -0.2515525E-14  0.1124968E-14  0.1363580E-09  0.4205281E-09  0.7048144E-15  0.1987126E-14  0.1273798E-12  0.1753665E-12
  0.4795000E+02  0.3282969E-14  0.4416877E-14 -0.6415699E-09 -0.1979266E-08 -0.1384595E-14  0.1016440E-14  0.1326642E-09  0.2665032E-09  0.3473065E-16  0.4166589E-15  0.1264907E-12  0.7129908E-13
  0.5313333E+02 -0.8451064E-15 -0.5933838E-15 -0.6385957E-09 -0.3224873E-08  0.2530389E-14 -0.9866240E-15  0.1327165E-09  0.4364614E-09 -0.7334159E-15 -0.1176359E-15  0.1292824E-12  0.1295089E-13
  0.5831666E+02  0.4617151E-14  0.2341660E-14 -0.5684784E-09 -0.2720376E-08  0.1290765E-14  0.2365295E-14  0.1235788E-09  0.3651746E-09  0.5935046E-15 -0.2509928E-15  0.1303006E-12 -0.4939083E-13
  0.6350000E+02 -0.5282247E-14 -0.1319081E-14 -0.5783945E-09 -0.1100544E-09  0.2610335E-14 -0.6176700E-15  0.1251325E-09  0.1467266E-10 -0.2797412E-16  0.6202043E-15  0.1310228E-12 -0.1349019E-14
  0.6868333E+02  0.4765813E-14  0.2224918E-15 -0.5935577E-09  0.6359343E-10 -0.2366464E-14 -0.8386304E-16  0.1273529E-09 -0.8531217E-11 -0.3855203E-15  0.2286989E-15  0.1309618E-12  0.4099141E-14
  0.7386666E+02  0.1891608E-14  0.8185726E-15 -0.5908952E-09  0.3843103E-09  0.3637283E-15  0.5945765E-15  0.1271234E-09 -0.5174003E-10  0.1038204E-14  0.5963112E-17  0.1311026E-12  0.8373654E-14
  0.7905000E+02 -0.3960217E-14 -0.2157427E-15 -0.5976136E-09  0.1048475E-09 -0.2645996E-14 -0.4721700E-16  0.1281293E-09 -0.1409277E-10  0.1452208E-14 -0.1235990E-16  0.1312070E-12  0.6101908E-14
  0.8423333E+02  0.3731063E-14  0.2755364E-15 -0.6005702E-09  0.1195445E-09 -0.1868971E-14 -0.9649399E-17  0.1286131E-09 -0.1607165E-10  0.1240928E-14 -0.1382358E-17  0.1311352E-12  0.1006871E-13
  0.8941666E+02  0.2451674E-14 -0.2555668E-16 -0.5942995E-09  0.6265497E-11  0.1480022E-14 -0.3252607E-18  0.1278407E-09 -0.8428453E-12 -0.6192624E-15 -0.1297231E-17  0.1315792E-12  0.4961596E-15
  0.9460000E+02  0.1084587E-14 -0.2075231E-17 -0.5933520E-09  0.4661201E-11 -0.7980462E-16 -0.1736418E-17  0.1277716E-09 -0.6267056E-12  0.1351397E-14 -0.1450544E-18  0.1317063E-12  0.2536310E-15
  0.9978333E+02  0.1558800E-14  0.0000000E+00 -0.6033967E-09  0.0000000E+00  0.3987679E-14  0.0000000E+00  0.1291718E-09  0.0000000E+00  0.4801015E-15  0.0000000E+00  0.1311771E-12  0.0000000E+00
  0.1049667E+03  0.3541016E-14  0.0000000E+00 -0.6023946E-09  0.0000000E+00 -0.2447496E-14  0.0000000E+00  0.1290798E-09  0.0000000E+00 -0.1745190E-15  0.0000000E+00  0.1312849E-12  0.0000000E+00
  0.1101500E+03  0.4132689E-14  0.0000000E+00 -0.6015293E-09  0.0000000E+00  0.7559394E-15  0.0000000E+00  0.1290012E-09  0.0000000E+00  0.2822174E-15  0.0000000E+00  0.1313780E-12  0.0000000E+00
  0.1153333E+03 -0.1413017E-13  0.0000000E+00 -0.6007756E-09  0.0000000E+00  0.2052309E-14  0.0000000E+00  0.1289326E-09  0.0000000E+00  0.4461750E-15  0.0000000E+00  0.1314588E-12  0.0000000E+00
  0.1205167E+03  0.3415708E-15  0.0000000E+00 -0.6001190E-09  0.0000000E+00  0.3371662E-15  0.0000000E+00  0.1288720E-09  0.0000000E+00 -0.6015562E-15  0.0000000E+00  0.1315294E-12  0.0000000E+00
  0.1257000E+03 -0.3667346E-14  0.0000000E+00 -0.5995501E-09  0.0000000E+00  0.2047333E-14  0.0000000E+00  0.1288198E-09  0.0000000E+00 -0.3709576E-15  0.0000000E+00  0.1315914E-12  0.0000000E+00
