VARIABLES="X" "Y" "Z" "NX" "NY" "NZ" "A"
 ZONE N=        2162 , E=         940  , F=FEPOINT,ET=QUADRILATERAL
   0.2077683E+00   0.1390840E-01  -0.7000000E-01   0.0000000E+00   0.0000000E+00   0.0000000E+00   0.0000000E+00
   0.2164267E+00   0.1448810E-01  -0.5833330E-01   0.0000000E+00   0.0000000E+00   0.0000000E+00   0.0000000E+00
   0.2250851E+00   0.1506770E-01  -0.4666670E-01   0.0000000E+00   0.0000000E+00   0.0000000E+00   0.0000000E+00
   0.2337435E+00   0.1564730E-01  -0.3500000E-01   0.0000000E+00   0.0000000E+00   0.0000000E+00   0.0000000E+00
   0.2424019E+00   0.1622690E-01  -0.2333330E-01   0.0000000E+00   0.0000000E+00   0.0000000E+00   0.0000000E+00
   0.2510603E+00   0.1680650E-01  -0.1166670E-01   0.0000000E+00   0.0000000E+00   0.0000000E+00   0.0000000E+00
   0.2597187E+00   0.1738610E-01   0.0000000E+00   0.0000000E+00   0.0000000E+00   0.0000000E+00   0.0000000E+00
   0.2082333E+00   0.0000000E+00  -0.7000000E-01   0.0000000E+00   0.0000000E+00   0.0000000E+00   0.0000000E+00
   0.2169111E+00   0.0000000E+00  -0.5833330E-01   0.0000000E+00   0.0000000E+00   0.0000000E+00   0.0000000E+00
   0.2255889E+00   0.0000000E+00  -0.4666670E-01   0.0000000E+00   0.0000000E+00   0.0000000E+00   0.0000000E+00
   0.2342667E+00   0.0000000E+00  -0.3500000E-01   0.0000000E+00   0.0000000E+00   0.0000000E+00   0.0000000E+00
   0.2429444E+00   0.0000000E+00  -0.2333330E-01   0.0000000E+00   0.0000000E+00   0.0000000E+00   0.0000000E+00
   0.2516222E+00   0.0000000E+00  -0.1166670E-01   0.0000000E+00   0.0000000E+00   0.0000000E+00   0.0000000E+00
   0.2603000E+00   0.0000000E+00   0.0000000E+00   0.0000000E+00   0.0000000E+00   0.0000000E+00   0.0000000E+00
   0.2063754E+00   0.2775480E-01  -0.7000000E-01   0.0000000E+00   0.0000000E+00   0.0000000E+00   0.0000000E+00
   0.2149757E+00   0.2891140E-01  -0.5833330E-01   0.0000000E+00   0.0000000E+00   0.0000000E+00   0.0000000E+00
   0.2235761E+00   0.3006810E-01  -0.4666670E-01   0.0000000E+00   0.0000000E+00   0.0000000E+00   0.0000000E+00
   0.2321765E+00   0.3122470E-01  -0.3500000E-01   0.0000000E+00   0.0000000E+00   0.0000000E+00   0.0000000E+00
   0.2407768E+00   0.3238130E-01  -0.2333330E-01   0.0000000E+00   0.0000000E+00   0.0000000E+00   0.0000000E+00
   0.2493771E+00   0.3353800E-01  -0.1166670E-01   0.0000000E+00   0.0000000E+00   0.0000000E+00   0.0000000E+00
   0.2579775E+00   0.3469460E-01   0.0000000E+00   0.0000000E+00   0.0000000E+00   0.0000000E+00   0.0000000E+00
   0.2077683E+00   0.1390840E-01  -0.7000000E-01   0.0000000E+00   0.0000000E+00   0.0000000E+00   0.0000000E+00
   0.2164267E+00   0.1448810E-01  -0.5833330E-01   0.0000000E+00   0.0000000E+00   0.0000000E+00   0.0000000E+00
   0.2250851E+00   0.1506770E-01  -0.4666670E-01   0.0000000E+00   0.0000000E+00   0.0000000E+00   0.0000000E+00
   0.2337435E+00   0.1564730E-01  -0.3500000E-01   0.0000000E+00   0.0000000E+00   0.0000000E+00   0.0000000E+00
   0.2424019E+00   0.1622690E-01  -0.2333330E-01   0.0000000E+00   0.0000000E+00   0.0000000E+00   0.0000000E+00
   0.2510603E+00   0.1680650E-01  -0.1166670E-01   0.0000000E+00   0.0000000E+00   0.0000000E+00   0.0000000E+00
   0.2597187E+00   0.1738610E-01   0.0000000E+00   0.0000000E+00   0.0000000E+00   0.0000000E+00   0.0000000E+00
   0.2040607E+00   0.4147720E-01  -0.7000000E-01   0.0000000E+00   0.0000000E+00   0.0000000E+00   0.0000000E+00
   0.2125646E+00   0.4320560E-01  -0.5833330E-01   0.0000000E+00   0.0000000E+00   0.0000000E+00   0.0000000E+00
   0.2210685E+00   0.4493410E-01  -0.4666670E-01   0.0000000E+00   0.0000000E+00   0.0000000E+00   0.0000000E+00
   0.2295724E+00   0.4666260E-01  -0.3500000E-01   0.0000000E+00   0.0000000E+00   0.0000000E+00   0.0000000E+00
   0.2380762E+00   0.4839110E-01  -0.2333330E-01   0.0000000E+00   0.0000000E+00   0.0000000E+00   0.0000000E+00
   0.2465801E+00   0.5011960E-01  -0.1166670E-01   0.0000000E+00   0.0000000E+00   0.0000000E+00   0.0000000E+00
   0.2550840E+00   0.5184810E-01   0.0000000E+00   0.0000000E+00   0.0000000E+00   0.0000000E+00   0.0000000E+00
   0.2063754E+00   0.2775480E-01  -0.7000000E-01   0.0000000E+00   0.0000000E+00   0.0000000E+00   0.0000000E+00
   0.2149757E+00   0.2891140E-01  -0.5833330E-01   0.0000000E+00   0.0000000E+00   0.0000000E+00   0.0000000E+00
   0.2235761E+00   0.3006810E-01  -0.4666670E-01   0.0000000E+00   0.0000000E+00   0.0000000E+00   0.0000000E+00
   0.2321765E+00   0.3122470E-01  -0.3500000E-01   0.0000000E+00   0.0000000E+00   0.0000000E+00   0.0000000E+00
   0.2407768E+00   0.3238130E-01  -0.2333330E-01   0.0000000E+00   0.0000000E+00   0.0000000E+00   0.0000000E+00
   0.2493771E+00   0.3353800E-01  -0.1166670E-01   0.0000000E+00   0.0000000E+00   0.0000000E+00   0.0000000E+00
   0.2579775E+00   0.3469460E-01   0.0000000E+00   0.0000000E+00   0.0000000E+00   0.0000000E+00   0.0000000E+00
   0.2008346E+00   0.5501430E-01  -0.7000000E-01   0.0000000E+00   0.0000000E+00   0.0000000E+00   0.0000000E+00
   0.2092040E+00   0.5730690E-01  -0.5833330E-01   0.0000000E+00   0.0000000E+00   0.0000000E+00   0.0000000E+00
   0.2175735E+00   0.5959950E-01  -0.4666670E-01   0.0000000E+00   0.0000000E+00   0.0000000E+00   0.0000000E+00
   0.2259430E+00   0.6189220E-01  -0.3500000E-01   0.0000000E+00   0.0000000E+00   0.0000000E+00   0.0000000E+00
   0.2343124E+00   0.6418480E-01  -0.2333330E-01   0.0000000E+00   0.0000000E+00   0.0000000E+00   0.0000000E+00
   0.2426819E+00   0.6647740E-01  -0.1166670E-01   0.0000000E+00   0.0000000E+00   0.0000000E+00   0.0000000E+00
   0.2510513E+00   0.6877010E-01   0.0000000E+00   0.0000000E+00   0.0000000E+00   0.0000000E+00   0.0000000E+00
   0.2040607E+00   0.4147720E-01  -0.7000000E-01   0.0000000E+00   0.0000000E+00   0.0000000E+00   0.0000000E+00
   0.2125646E+00   0.4320560E-01  -0.5833330E-01   0.0000000E+00   0.0000000E+00   0.0000000E+00   0.0000000E+00
   0.2210685E+00   0.4493410E-01  -0.4666670E-01   0.0000000E+00   0.0000000E+00   0.0000000E+00   0.0000000E+00
   0.2295724E+00   0.4666260E-01  -0.3500000E-01   0.0000000E+00   0.0000000E+00   0.0000000E+00   0.0000000E+00
   0.2380762E+00   0.4839110E-01  -0.2333330E-01   0.0000000E+00   0.0000000E+00   0.0000000E+00   0.0000000E+00
   0.2465801E+00   0.5011960E-01  -0.1166670E-01   0.0000000E+00   0.0000000E+00   0.0000000E+00   0.0000000E+00
   0.2550840E+00   0.5184810E-01   0.0000000E+00   0.0000000E+00   0.0000000E+00   0.0000000E+00   0.0000000E+00
   0.1967116E+00   0.6830570E-01  -0.7000000E-01   0.0000000E+00   0.0000000E+00   0.0000000E+00   0.0000000E+00
   0.2049092E+00   0.7115220E-01  -0.5833330E-01   0.0000000E+00   0.0000000E+00   0.0000000E+00   0.0000000E+00
   0.2131069E+00   0.7399880E-01  -0.4666670E-01   0.0000000E+00   0.0000000E+00   0.0000000E+00   0.0000000E+00
   0.2213045E+00   0.7684530E-01  -0.3500000E-01   0.0000000E+00   0.0000000E+00   0.0000000E+00   0.0000000E+00
   0.2295021E+00   0.7969180E-01  -0.2333330E-01   0.0000000E+00   0.0000000E+00   0.0000000E+00   0.0000000E+00
   0.2376998E+00   0.8253830E-01  -0.1166670E-01   0.0000000E+00   0.0000000E+00   0.0000000E+00   0.0000000E+00
   0.2458974E+00   0.8538490E-01   0.0000000E+00   0.0000000E+00   0.0000000E+00   0.0000000E+00   0.0000000E+00
   0.2008346E+00   0.5501430E-01  -0.7000000E-01   0.0000000E+00   0.0000000E+00   0.0000000E+00   0.0000000E+00
   0.2092040E+00   0.5730690E-01  -0.5833330E-01   0.0000000E+00   0.0000000E+00   0.0000000E+00   0.0000000E+00
   0.2175735E+00   0.5959950E-01  -0.4666670E-01   0.0000000E+00   0.0000000E+00   0.0000000E+00   0.0000000E+00
   0.2259430E+00   0.6189220E-01  -0.3500000E-01   0.0000000E+00   0.0000000E+00   0.0000000E+00   0.0000000E+00
   0.2343124E+00   0.6418480E-01  -0.2333330E-01   0.0000000E+00   0.0000000E+00   0.0000000E+00   0.0000000E+00
   0.2426819E+00   0.6647740E-01  -0.1166670E-01   0.0000000E+00   0.0000000E+00   0.0000000E+00   0.0000000E+00
   0.2510513E+00   0.6877010E-01   0.0000000E+00   0.0000000E+00   0.0000000E+00   0.0000000E+00   0.0000000E+00
   0.1917100E+00   0.8129210E-01  -0.7000000E-01   0.0000000E+00   0.0000000E+00   0.0000000E+00   0.0000000E+00
   0.1996992E+00   0.8467980E-01  -0.5833330E-01   0.0000000E+00   0.0000000E+00   0.0000000E+00   0.0000000E+00
   0.2076884E+00   0.8806750E-01  -0.4666670E-01   0.0000000E+00   0.0000000E+00   0.0000000E+00   0.0000000E+00
   0.2156776E+00   0.9145520E-01  -0.3500000E-01   0.0000000E+00   0.0000000E+00   0.0000000E+00   0.0000000E+00
   0.2236668E+00   0.9484290E-01  -0.2333330E-01   0.0000000E+00   0.0000000E+00   0.0000000E+00   0.0000000E+00
   0.2316560E+00   0.9823060E-01  -0.1166670E-01   0.0000000E+00   0.0000000E+00   0.0000000E+00   0.0000000E+00
   0.2396452E+00   0.1016183E+00   0.0000000E+00   0.0000000E+00   0.0000000E+00   0.0000000E+00   0.0000000E+00
   0.1967116E+00   0.6830570E-01  -0.7000000E-01   0.0000000E+00   0.0000000E+00   0.0000000E+00   0.0000000E+00
   0.2049092E+00   0.7115220E-01  -0.5833330E-01   0.0000000E+00   0.0000000E+00   0.0000000E+00   0.0000000E+00
   0.2131069E+00   0.7399880E-01  -0.4666670E-01   0.0000000E+00   0.0000000E+00   0.0000000E+00   0.0000000E+00
   0.2213045E+00   0.7684530E-01  -0.3500000E-01   0.0000000E+00   0.0000000E+00   0.0000000E+00   0.0000000E+00
   0.2295021E+00   0.7969180E-01  -0.2333330E-01   0.0000000E+00   0.0000000E+00   0.0000000E+00   0.0000000E+00
   0.2376998E+00   0.8253830E-01  -0.1166670E-01   0.0000000E+00   0.0000000E+00   0.0000000E+00   0.0000000E+00
   0.2458974E+00   0.8538490E-01   0.0000000E+00   0.0000000E+00   0.0000000E+00   0.0000000E+00   0.0000000E+00
   0.1858522E+00   0.9391530E-01  -0.7000000E-01   0.0000000E+00   0.0000000E+00   0.0000000E+00   0.0000000E+00
   0.1935973E+00   0.9782910E-01  -0.5833330E-01   0.0000000E+00   0.0000000E+00   0.0000000E+00   0.0000000E+00
   0.2013424E+00   0.1017429E+00  -0.4666670E-01   0.0000000E+00   0.0000000E+00   0.0000000E+00   0.0000000E+00
   0.2090874E+00   0.1056566E+00  -0.3500000E-01   0.0000000E+00   0.0000000E+00   0.0000000E+00   0.0000000E+00
   0.2168325E+00   0.1095704E+00  -0.2333330E-01   0.0000000E+00   0.0000000E+00   0.0000000E+00   0.0000000E+00
   0.2245776E+00   0.1134841E+00  -0.1166670E-01   0.0000000E+00   0.0000000E+00   0.0000000E+00   0.0000000E+00
   0.2323227E+00   0.1173979E+00   0.0000000E+00   0.0000000E+00   0.0000000E+00   0.0000000E+00   0.0000000E+00
   0.1917100E+00   0.8129210E-01  -0.7000000E-01   0.0000000E+00   0.0000000E+00   0.0000000E+00   0.0000000E+00
   0.1996992E+00   0.8467980E-01  -0.5833330E-01   0.0000000E+00   0.0000000E+00   0.0000000E+00   0.0000000E+00
   0.2076884E+00   0.8806750E-01  -0.4666670E-01   0.0000000E+00   0.0000000E+00   0.0000000E+00   0.0000000E+00
   0.2156776E+00   0.9145520E-01  -0.3500000E-01   0.0000000E+00   0.0000000E+00   0.0000000E+00   0.0000000E+00
   0.2236668E+00   0.9484290E-01  -0.2333330E-01   0.0000000E+00   0.0000000E+00   0.0000000E+00   0.0000000E+00
   0.2316560E+00   0.9823060E-01  -0.1166670E-01   0.0000000E+00   0.0000000E+00   0.0000000E+00   0.0000000E+00
   0.2396452E+00   0.1016183E+00   0.0000000E+00   0.0000000E+00   0.0000000E+00   0.0000000E+00   0.0000000E+00
   0.1791643E+00   0.1061192E+00  -0.7000000E-01   0.0000000E+00   0.0000000E+00   0.0000000E+00   0.0000000E+00
   0.1866307E+00   0.1105415E+00  -0.5833330E-01   0.0000000E+00   0.0000000E+00   0.0000000E+00   0.0000000E+00
   0.1940970E+00   0.1149639E+00  -0.4666670E-01   0.0000000E+00   0.0000000E+00   0.0000000E+00   0.0000000E+00
   0.2015634E+00   0.1193862E+00  -0.3500000E-01   0.0000000E+00   0.0000000E+00   0.0000000E+00   0.0000000E+00
   0.2090298E+00   0.1238085E+00  -0.2333330E-01   0.0000000E+00   0.0000000E+00   0.0000000E+00   0.0000000E+00
   0.2164961E+00   0.1282309E+00  -0.1166670E-01   0.0000000E+00   0.0000000E+00   0.0000000E+00   0.0000000E+00
   0.2239625E+00   0.1326532E+00   0.0000000E+00   0.0000000E+00   0.0000000E+00   0.0000000E+00   0.0000000E+00
   0.1858522E+00   0.9391530E-01  -0.7000000E-01   0.0000000E+00   0.0000000E+00   0.0000000E+00   0.0000000E+00
   0.1935973E+00   0.9782910E-01  -0.5833330E-01   0.0000000E+00   0.0000000E+00   0.0000000E+00   0.0000000E+00
   0.2013424E+00   0.1017429E+00  -0.4666670E-01   0.0000000E+00   0.0000000E+00   0.0000000E+00   0.0000000E+00
   0.2090874E+00   0.1056566E+00  -0.3500000E-01   0.0000000E+00   0.0000000E+00   0.0000000E+00   0.0000000E+00
   0.2168325E+00   0.1095704E+00  -0.2333330E-01   0.0000000E+00   0.0000000E+00   0.0000000E+00   0.0000000E+00
   0.2245776E+00   0.1134841E+00  -0.1166670E-01   0.0000000E+00   0.0000000E+00   0.0000000E+00   0.0000000E+00
   0.2323227E+00   0.1173979E+00   0.0000000E+00   0.0000000E+00   0.0000000E+00   0.0000000E+00   0.0000000E+00
   0.1716762E+00   0.1178490E+00  -0.7000000E-01   0.0000000E+00   0.0000000E+00   0.0000000E+00   0.0000000E+00
   0.1788305E+00   0.1227602E+00  -0.5833330E-01   0.0000000E+00   0.0000000E+00   0.0000000E+00   0.0000000E+00
   0.1859848E+00   0.1276713E+00  -0.4666670E-01   0.0000000E+00   0.0000000E+00   0.0000000E+00   0.0000000E+00
   0.1931392E+00   0.1325825E+00  -0.3500000E-01   0.0000000E+00   0.0000000E+00   0.0000000E+00   0.0000000E+00
   0.2002935E+00   0.1374937E+00  -0.2333330E-01   0.0000000E+00   0.0000000E+00   0.0000000E+00   0.0000000E+00
   0.2074478E+00   0.1424048E+00  -0.1166670E-01   0.0000000E+00   0.0000000E+00   0.0000000E+00   0.0000000E+00
   0.2146021E+00   0.1473160E+00   0.0000000E+00   0.0000000E+00   0.0000000E+00   0.0000000E+00   0.0000000E+00
   0.1791643E+00   0.1061192E+00  -0.7000000E-01   0.0000000E+00   0.0000000E+00   0.0000000E+00   0.0000000E+00
   0.1866307E+00   0.1105415E+00  -0.5833330E-01   0.0000000E+00   0.0000000E+00   0.0000000E+00   0.0000000E+00
   0.1940970E+00   0.1149639E+00  -0.4666670E-01   0.0000000E+00   0.0000000E+00   0.0000000E+00   0.0000000E+00
   0.2015634E+00   0.1193862E+00  -0.3500000E-01   0.0000000E+00   0.0000000E+00   0.0000000E+00   0.0000000E+00
   0.2090298E+00   0.1238085E+00  -0.2333330E-01   0.0000000E+00   0.0000000E+00   0.0000000E+00   0.0000000E+00
   0.2164961E+00   0.1282309E+00  -0.1166670E-01   0.0000000E+00   0.0000000E+00   0.0000000E+00   0.0000000E+00
   0.2239625E+00   0.1326532E+00   0.0000000E+00   0.0000000E+00   0.0000000E+00   0.0000000E+00   0.0000000E+00
   0.1634214E+00   0.1290526E+00  -0.7000000E-01   0.0000000E+00   0.0000000E+00   0.0000000E+00   0.0000000E+00
   0.1702317E+00   0.1344306E+00  -0.5833330E-01   0.0000000E+00   0.0000000E+00   0.0000000E+00   0.0000000E+00
   0.1770420E+00   0.1398087E+00  -0.4666670E-01   0.0000000E+00   0.0000000E+00   0.0000000E+00   0.0000000E+00
   0.1838523E+00   0.1451868E+00  -0.3500000E-01   0.0000000E+00   0.0000000E+00   0.0000000E+00   0.0000000E+00
   0.1906627E+00   0.1505648E+00  -0.2333330E-01   0.0000000E+00   0.0000000E+00   0.0000000E+00   0.0000000E+00
   0.1974730E+00   0.1559428E+00  -0.1166670E-01   0.0000000E+00   0.0000000E+00   0.0000000E+00   0.0000000E+00
   0.2042833E+00   0.1613209E+00   0.0000000E+00   0.0000000E+00   0.0000000E+00   0.0000000E+00   0.0000000E+00
   0.1716762E+00   0.1178490E+00  -0.7000000E-01   0.0000000E+00   0.0000000E+00   0.0000000E+00   0.0000000E+00
   0.1788305E+00   0.1227602E+00  -0.5833330E-01   0.0000000E+00   0.0000000E+00   0.0000000E+00   0.0000000E+00
   0.1859848E+00   0.1276713E+00  -0.4666670E-01   0.0000000E+00   0.0000000E+00   0.0000000E+00   0.0000000E+00
   0.1931392E+00   0.1325825E+00  -0.3500000E-01   0.0000000E+00   0.0000000E+00   0.0000000E+00   0.0000000E+00
   0.2002935E+00   0.1374937E+00  -0.2333330E-01   0.0000000E+00   0.0000000E+00   0.0000000E+00   0.0000000E+00
   0.2074478E+00   0.1424048E+00  -0.1166670E-01   0.0000000E+00   0.0000000E+00   0.0000000E+00   0.0000000E+00
   0.2146021E+00   0.1473160E+00   0.0000000E+00   0.0000000E+00   0.0000000E+00   0.0000000E+00   0.0000000E+00
   0.1544367E+00   0.1396797E+00  -0.7000000E-01   0.0000000E+00   0.0000000E+00   0.0000000E+00   0.0000000E+00
   0.1608726E+00   0.1455006E+00  -0.5833330E-01   0.0000000E+00   0.0000000E+00   0.0000000E+00   0.0000000E+00
   0.1673085E+00   0.1513216E+00  -0.4666670E-01   0.0000000E+00   0.0000000E+00   0.0000000E+00   0.0000000E+00
   0.1737444E+00   0.1571425E+00  -0.3500000E-01   0.0000000E+00   0.0000000E+00   0.0000000E+00   0.0000000E+00
   0.1801802E+00   0.1629634E+00  -0.2333330E-01   0.0000000E+00   0.0000000E+00   0.0000000E+00   0.0000000E+00
   0.1866161E+00   0.1687844E+00  -0.1166670E-01   0.0000000E+00   0.0000000E+00   0.0000000E+00   0.0000000E+00
   0.1930520E+00   0.1746053E+00   0.0000000E+00   0.0000000E+00   0.0000000E+00   0.0000000E+00   0.0000000E+00
   0.1634214E+00   0.1290526E+00  -0.7000000E-01   0.0000000E+00   0.0000000E+00   0.0000000E+00   0.0000000E+00
   0.1702317E+00   0.1344306E+00  -0.5833330E-01   0.0000000E+00   0.0000000E+00   0.0000000E+00   0.0000000E+00
   0.1770420E+00   0.1398087E+00  -0.4666670E-01   0.0000000E+00   0.0000000E+00   0.0000000E+00   0.0000000E+00
   0.1838523E+00   0.1451868E+00  -0.3500000E-01   0.0000000E+00   0.0000000E+00   0.0000000E+00   0.0000000E+00
   0.1906627E+00   0.1505648E+00  -0.2333330E-01   0.0000000E+00   0.0000000E+00   0.0000000E+00   0.0000000E+00
   0.1974730E+00   0.1559428E+00  -0.1166670E-01   0.0000000E+00   0.0000000E+00   0.0000000E+00   0.0000000E+00
   0.2042833E+00   0.1613209E+00   0.0000000E+00   0.0000000E+00   0.0000000E+00   0.0000000E+00   0.0000000E+00
   0.1447622E+00   0.1496831E+00  -0.7000000E-01   0.0000000E+00   0.0000000E+00   0.0000000E+00   0.0000000E+00
   0.1507949E+00   0.1559209E+00  -0.5833330E-01   0.0000000E+00   0.0000000E+00   0.0000000E+00   0.0000000E+00
   0.1568277E+00   0.1621587E+00  -0.4666670E-01   0.0000000E+00   0.0000000E+00   0.0000000E+00   0.0000000E+00
   0.1628604E+00   0.1683964E+00  -0.3500000E-01   0.0000000E+00   0.0000000E+00   0.0000000E+00   0.0000000E+00
   0.1688931E+00   0.1746342E+00  -0.2333330E-01   0.0000000E+00   0.0000000E+00   0.0000000E+00   0.0000000E+00
   0.1749259E+00   0.1808720E+00  -0.1166670E-01   0.0000000E+00   0.0000000E+00   0.0000000E+00   0.0000000E+00
   0.1809586E+00   0.1871098E+00   0.0000000E+00   0.0000000E+00   0.0000000E+00   0.0000000E+00   0.0000000E+00
   0.1544367E+00   0.1396797E+00  -0.7000000E-01   0.0000000E+00   0.0000000E+00   0.0000000E+00   0.0000000E+00
   0.1608726E+00   0.1455006E+00  -0.5833330E-01   0.0000000E+00   0.0000000E+00   0.0000000E+00   0.0000000E+00
   0.1673085E+00   0.1513216E+00  -0.4666670E-01   0.0000000E+00   0.0000000E+00   0.0000000E+00   0.0000000E+00
   0.1737444E+00   0.1571425E+00  -0.3500000E-01   0.0000000E+00   0.0000000E+00   0.0000000E+00   0.0000000E+00
   0.1801802E+00   0.1629634E+00  -0.2333330E-01   0.0000000E+00   0.0000000E+00   0.0000000E+00   0.0000000E+00
   0.1866161E+00   0.1687844E+00  -0.1166670E-01   0.0000000E+00   0.0000000E+00   0.0000000E+00   0.0000000E+00
   0.1930520E+00   0.1746053E+00   0.0000000E+00   0.0000000E+00   0.0000000E+00   0.0000000E+00   0.0000000E+00
   0.1344412E+00   0.1590178E+00  -0.7000000E-01   0.0000000E+00   0.0000000E+00   0.0000000E+00   0.0000000E+00
   0.1400438E+00   0.1656446E+00  -0.5833330E-01   0.0000000E+00   0.0000000E+00   0.0000000E+00   0.0000000E+00
   0.1456464E+00   0.1722714E+00  -0.4666670E-01   0.0000000E+00   0.0000000E+00   0.0000000E+00   0.0000000E+00
   0.1512491E+00   0.1788982E+00  -0.3500000E-01   0.0000000E+00   0.0000000E+00   0.0000000E+00   0.0000000E+00
   0.1568517E+00   0.1855251E+00  -0.2333330E-01   0.0000000E+00   0.0000000E+00   0.0000000E+00   0.0000000E+00
   0.1624543E+00   0.1921519E+00  -0.1166670E-01   0.0000000E+00   0.0000000E+00   0.0000000E+00   0.0000000E+00
   0.1680569E+00   0.1987787E+00   0.0000000E+00   0.0000000E+00   0.0000000E+00   0.0000000E+00   0.0000000E+00
   0.1447622E+00   0.1496831E+00  -0.7000000E-01   0.0000000E+00   0.0000000E+00   0.0000000E+00   0.0000000E+00
   0.1507949E+00   0.1559209E+00  -0.5833330E-01   0.0000000E+00   0.0000000E+00   0.0000000E+00   0.0000000E+00
   0.1568277E+00   0.1621587E+00  -0.4666670E-01   0.0000000E+00   0.0000000E+00   0.0000000E+00   0.0000000E+00
   0.1628604E+00   0.1683964E+00  -0.3500000E-01   0.0000000E+00   0.0000000E+00   0.0000000E+00   0.0000000E+00
   0.1688931E+00   0.1746342E+00  -0.2333330E-01   0.0000000E+00   0.0000000E+00   0.0000000E+00   0.0000000E+00
   0.1749259E+00   0.1808720E+00  -0.1166670E-01   0.0000000E+00   0.0000000E+00   0.0000000E+00   0.0000000E+00
   0.1809586E+00   0.1871098E+00   0.0000000E+00   0.0000000E+00   0.0000000E+00   0.0000000E+00   0.0000000E+00
   0.1235198E+00   0.1676424E+00  -0.7000000E-01   0.0000000E+00   0.0000000E+00   0.0000000E+00   0.0000000E+00
   0.1286673E+00   0.1746286E+00  -0.5833330E-01   0.0000000E+00   0.0000000E+00   0.0000000E+00   0.0000000E+00
   0.1338148E+00   0.1816148E+00  -0.4666670E-01   0.0000000E+00   0.0000000E+00   0.0000000E+00   0.0000000E+00
   0.1389623E+00   0.1886010E+00  -0.3500000E-01   0.0000000E+00   0.0000000E+00   0.0000000E+00   0.0000000E+00
   0.1441097E+00   0.1955873E+00  -0.2333330E-01   0.0000000E+00   0.0000000E+00   0.0000000E+00   0.0000000E+00
   0.1492572E+00   0.2025735E+00  -0.1166670E-01   0.0000000E+00   0.0000000E+00   0.0000000E+00   0.0000000E+00
   0.1544047E+00   0.2095597E+00   0.0000000E+00   0.0000000E+00   0.0000000E+00   0.0000000E+00   0.0000000E+00
   0.1344412E+00   0.1590178E+00  -0.7000000E-01   0.0000000E+00   0.0000000E+00   0.0000000E+00   0.0000000E+00
   0.1400438E+00   0.1656446E+00  -0.5833330E-01   0.0000000E+00   0.0000000E+00   0.0000000E+00   0.0000000E+00
   0.1456464E+00   0.1722714E+00  -0.4666670E-01   0.0000000E+00   0.0000000E+00   0.0000000E+00   0.0000000E+00
   0.1512491E+00   0.1788982E+00  -0.3500000E-01   0.0000000E+00   0.0000000E+00   0.0000000E+00   0.0000000E+00
   0.1568517E+00   0.1855251E+00  -0.2333330E-01   0.0000000E+00   0.0000000E+00   0.0000000E+00   0.0000000E+00
   0.1624543E+00   0.1921519E+00  -0.1166670E-01   0.0000000E+00   0.0000000E+00   0.0000000E+00   0.0000000E+00
   0.1680569E+00   0.1987787E+00   0.0000000E+00   0.0000000E+00   0.0000000E+00   0.0000000E+00   0.0000000E+00
   0.1120467E+00   0.1755183E+00  -0.7000000E-01   0.0000000E+00   0.0000000E+00   0.0000000E+00   0.0000000E+00
   0.1167160E+00   0.1828327E+00  -0.5833330E-01   0.0000000E+00   0.0000000E+00   0.0000000E+00   0.0000000E+00
   0.1213854E+00   0.1901472E+00  -0.4666670E-01   0.0000000E+00   0.0000000E+00   0.0000000E+00   0.0000000E+00
   0.1260547E+00   0.1974616E+00  -0.3500000E-01   0.0000000E+00   0.0000000E+00   0.0000000E+00   0.0000000E+00
   0.1307241E+00   0.2047760E+00  -0.2333330E-01   0.0000000E+00   0.0000000E+00   0.0000000E+00   0.0000000E+00
   0.1353934E+00   0.2120905E+00  -0.1166670E-01   0.0000000E+00   0.0000000E+00   0.0000000E+00   0.0000000E+00
   0.1400628E+00   0.2194049E+00   0.0000000E+00   0.0000000E+00   0.0000000E+00   0.0000000E+00   0.0000000E+00
   0.1235198E+00   0.1676424E+00  -0.7000000E-01   0.0000000E+00   0.0000000E+00   0.0000000E+00   0.0000000E+00
   0.1286673E+00   0.1746286E+00  -0.5833330E-01   0.0000000E+00   0.0000000E+00   0.0000000E+00   0.0000000E+00
   0.1338148E+00   0.1816148E+00  -0.4666670E-01   0.0000000E+00   0.0000000E+00   0.0000000E+00   0.0000000E+00
   0.1389623E+00   0.1886010E+00  -0.3500000E-01   0.0000000E+00   0.0000000E+00   0.0000000E+00   0.0000000E+00
   0.1441097E+00   0.1955873E+00  -0.2333330E-01   0.0000000E+00   0.0000000E+00   0.0000000E+00   0.0000000E+00
   0.1492572E+00   0.2025735E+00  -0.1166670E-01   0.0000000E+00   0.0000000E+00   0.0000000E+00   0.0000000E+00
   0.1544047E+00   0.2095597E+00   0.0000000E+00   0.0000000E+00   0.0000000E+00   0.0000000E+00   0.0000000E+00
   0.1000731E+00   0.1826102E+00  -0.7000000E-01   0.0000000E+00   0.0000000E+00   0.0000000E+00   0.0000000E+00
   0.1042435E+00   0.1902202E+00  -0.5833330E-01   0.0000000E+00   0.0000000E+00   0.0000000E+00   0.0000000E+00
   0.1084139E+00   0.1978302E+00  -0.4666670E-01   0.0000000E+00   0.0000000E+00   0.0000000E+00   0.0000000E+00
   0.1125842E+00   0.2054401E+00  -0.3500000E-01   0.0000000E+00   0.0000000E+00   0.0000000E+00   0.0000000E+00
   0.1167546E+00   0.2130501E+00  -0.2333330E-01   0.0000000E+00   0.0000000E+00   0.0000000E+00   0.0000000E+00
   0.1209250E+00   0.2206601E+00  -0.1166670E-01   0.0000000E+00   0.0000000E+00   0.0000000E+00   0.0000000E+00
   0.1250954E+00   0.2282701E+00   0.0000000E+00   0.0000000E+00   0.0000000E+00   0.0000000E+00   0.0000000E+00
   0.1120467E+00   0.1755183E+00  -0.7000000E-01   0.0000000E+00   0.0000000E+00   0.0000000E+00   0.0000000E+00
   0.1167160E+00   0.1828327E+00  -0.5833330E-01   0.0000000E+00   0.0000000E+00   0.0000000E+00   0.0000000E+00
   0.1213854E+00   0.1901472E+00  -0.4666670E-01   0.0000000E+00   0.0000000E+00   0.0000000E+00   0.0000000E+00
   0.1260547E+00   0.1974616E+00  -0.3500000E-01   0.0000000E+00   0.0000000E+00   0.0000000E+00   0.0000000E+00
   0.1307241E+00   0.2047760E+00  -0.2333330E-01   0.0000000E+00   0.0000000E+00   0.0000000E+00   0.0000000E+00
   0.1353934E+00   0.2120905E+00  -0.1166670E-01   0.0000000E+00   0.0000000E+00   0.0000000E+00   0.0000000E+00
   0.1400628E+00   0.2194049E+00   0.0000000E+00   0.0000000E+00   0.0000000E+00   0.0000000E+00   0.0000000E+00
   0.8765270E-01   0.1888866E+00  -0.7000000E-01   0.0000000E+00   0.0000000E+00   0.0000000E+00   0.0000000E+00
   0.9130540E-01   0.1967581E+00  -0.5833330E-01   0.0000000E+00   0.0000000E+00   0.0000000E+00   0.0000000E+00
   0.9495820E-01   0.2046297E+00  -0.4666670E-01   0.0000000E+00   0.0000000E+00   0.0000000E+00   0.0000000E+00
   0.9861100E-01   0.2125012E+00  -0.3500000E-01   0.0000000E+00   0.0000000E+00   0.0000000E+00   0.0000000E+00
   0.1022638E+00   0.2203727E+00  -0.2333330E-01   0.0000000E+00   0.0000000E+00   0.0000000E+00   0.0000000E+00
   0.1059165E+00   0.2282443E+00  -0.1166670E-01   0.0000000E+00   0.0000000E+00   0.0000000E+00   0.0000000E+00
   0.1095693E+00   0.2361158E+00   0.0000000E+00   0.0000000E+00   0.0000000E+00   0.0000000E+00   0.0000000E+00
   0.1000731E+00   0.1826102E+00  -0.7000000E-01   0.0000000E+00   0.0000000E+00   0.0000000E+00   0.0000000E+00
   0.1042435E+00   0.1902202E+00  -0.5833330E-01   0.0000000E+00   0.0000000E+00   0.0000000E+00   0.0000000E+00
   0.1084139E+00   0.1978302E+00  -0.4666670E-01   0.0000000E+00   0.0000000E+00   0.0000000E+00   0.0000000E+00
   0.1125842E+00   0.2054401E+00  -0.3500000E-01   0.0000000E+00   0.0000000E+00   0.0000000E+00   0.0000000E+00
   0.1167546E+00   0.2130501E+00  -0.2333330E-01   0.0000000E+00   0.0000000E+00   0.0000000E+00   0.0000000E+00
   0.1209250E+00   0.2206601E+00  -0.1166670E-01   0.0000000E+00   0.0000000E+00   0.0000000E+00   0.0000000E+00
   0.1250954E+00   0.2282701E+00   0.0000000E+00   0.0000000E+00   0.0000000E+00   0.0000000E+00   0.0000000E+00
   0.7484070E-01   0.1943193E+00  -0.7000000E-01   0.0000000E+00   0.0000000E+00   0.0000000E+00   0.0000000E+00
   0.7795950E-01   0.2024172E+00  -0.5833330E-01   0.0000000E+00   0.0000000E+00   0.0000000E+00   0.0000000E+00
   0.8107840E-01   0.2105152E+00  -0.4666670E-01   0.0000000E+00   0.0000000E+00   0.0000000E+00   0.0000000E+00
   0.8419730E-01   0.2186131E+00  -0.3500000E-01   0.0000000E+00   0.0000000E+00   0.0000000E+00   0.0000000E+00
   0.8731610E-01   0.2267110E+00  -0.2333330E-01   0.0000000E+00   0.0000000E+00   0.0000000E+00   0.0000000E+00
   0.9043500E-01   0.2348090E+00  -0.1166670E-01   0.0000000E+00   0.0000000E+00   0.0000000E+00   0.0000000E+00
   0.9355380E-01   0.2429069E+00   0.0000000E+00   0.0000000E+00   0.0000000E+00   0.0000000E+00   0.0000000E+00
   0.8765270E-01   0.1888866E+00  -0.7000000E-01   0.0000000E+00   0.0000000E+00   0.0000000E+00   0.0000000E+00
   0.9130540E-01   0.1967581E+00  -0.5833330E-01   0.0000000E+00   0.0000000E+00   0.0000000E+00   0.0000000E+00
   0.9495820E-01   0.2046297E+00  -0.4666670E-01   0.0000000E+00   0.0000000E+00   0.0000000E+00   0.0000000E+00
   0.9861100E-01   0.2125012E+00  -0.3500000E-01   0.0000000E+00   0.0000000E+00   0.0000000E+00   0.0000000E+00
   0.1022638E+00   0.2203727E+00  -0.2333330E-01   0.0000000E+00   0.0000000E+00   0.0000000E+00   0.0000000E+00
   0.1059165E+00   0.2282443E+00  -0.1166670E-01   0.0000000E+00   0.0000000E+00   0.0000000E+00   0.0000000E+00
   0.1095693E+00   0.2361158E+00   0.0000000E+00   0.0000000E+00   0.0000000E+00   0.0000000E+00   0.0000000E+00
   0.6169450E-01   0.1988842E+00  -0.7000000E-01   0.0000000E+00   0.0000000E+00   0.0000000E+00   0.0000000E+00
   0.6426550E-01   0.2071724E+00  -0.5833330E-01   0.0000000E+00   0.0000000E+00   0.0000000E+00   0.0000000E+00
   0.6683650E-01   0.2154605E+00  -0.4666670E-01   0.0000000E+00   0.0000000E+00   0.0000000E+00   0.0000000E+00
   0.6940750E-01   0.2237487E+00  -0.3500000E-01   0.0000000E+00   0.0000000E+00   0.0000000E+00   0.0000000E+00
   0.7197850E-01   0.2320369E+00  -0.2333330E-01   0.0000000E+00   0.0000000E+00   0.0000000E+00   0.0000000E+00
   0.7454950E-01   0.2403250E+00  -0.1166670E-01   0.0000000E+00   0.0000000E+00   0.0000000E+00   0.0000000E+00
   0.7712050E-01   0.2486132E+00   0.0000000E+00   0.0000000E+00   0.0000000E+00   0.0000000E+00   0.0000000E+00
   0.7484070E-01   0.1943193E+00  -0.7000000E-01   0.0000000E+00   0.0000000E+00   0.0000000E+00   0.0000000E+00
   0.7795950E-01   0.2024172E+00  -0.5833330E-01   0.0000000E+00   0.0000000E+00   0.0000000E+00   0.0000000E+00
   0.8107840E-01   0.2105152E+00  -0.4666670E-01   0.0000000E+00   0.0000000E+00   0.0000000E+00   0.0000000E+00
   0.8419730E-01   0.2186131E+00  -0.3500000E-01   0.0000000E+00   0.0000000E+00   0.0000000E+00   0.0000000E+00
   0.8731610E-01   0.2267110E+00  -0.2333330E-01   0.0000000E+00   0.0000000E+00   0.0000000E+00   0.0000000E+00